Title: ** sch_path: /home/andylithia/openmpw/project-yatsuhashi-chip1/xschem/gmid_test/nmos_test.sch
Date: Sun Jul 17 22:51:45  2022
Plotname: DC transfer characteristic
Flags: real
No. Variables: 8
No. Points: 181
Variables:
	0	v(v-sweep)	voltage
	1	@m.xm1.msky130_fd_pr__nfet_01v8[cgb]	capacitance
	2	@m.xm1.msky130_fd_pr__nfet_01v8[cgd]	capacitance
	3	@m.xm1.msky130_fd_pr__nfet_01v8[cgs]	capacitance
	4	@m.xm1.msky130_fd_pr__nfet_01v8[gds]	admittance
	5	@m.xm1.msky130_fd_pr__nfet_01v8[gm]	admittance
	6	i(@m.xm1.msky130_fd_pr__nfet_01v8[id])	current
	7	v(@m.xm1.msky130_fd_pr__nfet_01v8[vth])	voltage
Values:
 0	0.000000000000000e+00
	-3.535276642821807e-15
	3.748384635304378e-19
	-2.427795173408148e-15
	1.605882995916657e-08
	5.226796546342949e-07
	4.495771754593102e-08
	4.193392740630313e-01

 1	1.000000000000000e-02
	-3.500720644375590e-15
	3.758040291878240e-19
	-2.498683981574619e-15
	1.802653044470576e-08
	5.862965298781516e-07
	5.049660470218799e-08
	4.193392746085187e-01

 2	2.000000000000000e-02
	-3.466170734397905e-15
	3.762637299880229e-19
	-2.570729883504951e-15
	2.023129845823858e-08
	6.575186742230883e-07
	5.670898595609822e-08
	4.193392752203324e-01

 3	3.000000000000000e-02
	-3.431638443756537e-15
	3.761891988844949e-19
	-2.643905455060501e-15
	2.270095038225754e-08
	7.372340120114125e-07
	6.367527386290068e-08
	4.193392759063940e-01

 4	4.000000000000000e-02
	-3.397135939523506e-15
	3.755516671677060e-19
	-2.718180955215675e-15
	2.546643087973809e-08
	8.264313075904102e-07
	7.148525555236016e-08
	4.193392766755450e-01

 5	5.000000000000000e-02
	-3.362675993764606e-15
	3.743220057872357e-19
	-2.793524350146234e-15
	2.856214048603871e-08
	9.262113675853247e-07
	8.023915614460793e-08
	4.193392775376577e-01

 6	6.000000000000000e-02
	-3.328271949544907e-15
	3.724707677411264e-19
	-2.869901346632234e-15
	3.202629325718395e-08
	1.037799503201726e-06
	9.004882036602116e-08
	4.193392785037438e-01

 7	7.000000000000001e-02
	-3.293937684248069e-15
	3.699682312592025e-19
	-2.947275434849939e-15
	3.590130649512228e-08
	1.162559409075111e-06
	1.010390257296084e-07
	4.193392795860957e-01

 8	8.000000000000000e-02
	-3.259687570328935e-15
	3.667844434901339e-19
	-3.025607940567754e-15
	4.023422457535082e-08
	1.302008638697648e-06
	1.133489423240360e-07
	4.193392807984156e-01

 9	9.000000000000000e-02
	-3.225536433640334e-15
	3.628892643893853e-19
	-3.104858086697536e-15
	4.507717887860406e-08
	1.457835884001415e-06
	1.271337561896101e-07
	4.193392821559903e-01

 10	9.999999999999999e-02
	-3.191499509495481e-15
	3.582524104920914e-19
	-3.184983064090450e-15
	5.048788577080317e-08
	1.631920298904293e-06
	1.425664754923426e-07
	4.193392836758562e-01

 11	1.100000000000000e-01
	-3.157592396647355e-15
	3.528434982468268e-19
	-3.265938111400404e-15
	5.653018447791209e-08
	1.826353144207096e-06
	1.598399412881462e-07
	4.193392853770068e-01

 12	1.200000000000000e-01
	-3.123831009384990e-15
	3.466320865782173e-19
	-3.347676603774269e-15
	6.327461655850776e-08
	2.043462074896991e-06
	1.791690676560057e-07
	4.193392872806074e-01

 13	1.300000000000000e-01
	-3.090231527964151e-15
	3.395877183430775e-19
	-3.430150150062802e-15
	7.079904847974390e-08
	2.285838441392736e-06
	2.007933394356453e-07
	4.193392894102433e-01

 14	1.400000000000000e-01
	-3.056810347605638e-15
	3.316799603427461e-19
	-3.513308698183031e-15
	7.918933854497982e-08
	2.556368034279453e-06
	2.249795998038428e-07
	4.193392917921953e-01

 15	1.500000000000000e-01
	-3.023584026308731e-15
	3.228784415560769e-19
	-3.597100648200887e-15
	8.854004909636318e-08
	2.858265768267544e-06
	2.520251645425713e-07
	4.193392944557468e-01

 16	1.600000000000000e-01
	-2.990569231739449e-15
	3.131528892613900e-19
	-3.681472972643735e-15
	9.895520451590437e-08
	3.195114875983701e-06
	2.822613051760763e-07
	4.193392974335192e-01

 17	1.700000000000000e-01
	-2.957782687463549e-15
	3.024731627238067e-19
	-3.766371343495579e-15
	1.105490950670314e-07
	3.570911266052187e-06
	3.160571492711647e-07
	4.193393007618704e-01

 18	1.800000000000000e-01
	-2.925241118802117e-15
	2.908092841330059e-19
	-3.851740265276110e-15
	1.234471260489750e-07
	3.990113792724860e-06
	3.538240531958464e-07
	4.193393044813132e-01

 19	1.900000000000000e-01
	-2.892961198593226e-15
	2.781314664906817e-19
	-3.937523213555476e-15
	1.377867110726287e-07
	4.457701285571209e-06
	3.960205106025108e-07
	4.193393086370050e-01

 20	2.000000000000000e-01
	-2.860959493146389e-15
	2.644101381614093e-19
	-4.023662778214259e-15
	1.537182075046354e-07
	4.979237296353622e-06
	4.431576689237979e-07
	4.193393132792836e-01

 21	2.100000000000000e-01
	-2.829252408677136e-15
	2.496159638194458e-19
	-4.110100810719605e-15
	1.714058912630444e-07
	5.560943634276747e-06
	4.958055363058347e-07
	4.193393184642951e-01

 22	2.200000000000001e-01
	-2.797856138507309e-15
	2.337198615429539e-19
	-4.196778574657599e-15
	1.910289671824673e-07
	6.209783877416079e-06
	5.545999726967830e-07
	4.193393242546576e-01

 23	2.300000000000001e-01
	-2.766786611312291e-15
	2.166930158317001e-19
	-4.283636898734850e-15
	2.127826101000899e-07
	6.933558163128201e-06
	6.202505712623144e-07
	4.193393307202656e-01

 24	2.400000000000001e-01
	-2.736059440689484e-15
	1.985068863458762e-19
	-4.370616331445391e-15
	2.368790306517096e-07
	7.741010668014147e-06
	6.935495498738474e-07
	4.193393379391456e-01

 25	2.500000000000001e-01
	-2.705689876313117e-15
	1.791332121917340e-19
	-4.457657296585305e-15
	2.635485585160178e-07
	8.641951281130705e-06
	7.753817869984398e-07
	4.193393459984480e-01

 26	2.600000000000001e-01
	-2.675692756928875e-15
	1.585440116058665e-19
	-4.544700248793391e-15
	2.930407345186842e-07
	9.647393043291286e-06
	8.667361517227795e-07
	4.193393549955711e-01

 27	2.700000000000001e-01
	-2.646082465427876e-15
	1.367115769176414e-19
	-4.631685828298706e-15
	3.256254016216125e-07
	1.076970695890539e-05
	9.687182935704469e-07
	4.193393650394142e-01

 28	2.800000000000001e-01
	-2.616872886223800e-15
	1.136084646990060e-19
	-4.718555014064374e-15
	3.615937833984116e-07
	1.202279577098266e-05
	1.082565073797842e-06
	4.193393762518040e-01

 29	2.900000000000001e-01
	-2.588077365139038e-15
	8.920748103867083e-20
	-4.805249274534231e-15
	4.012595371622096e-07
	1.342228820841962e-05
	1.209660835407900e-06
	4.193393887690919e-01

 30	3.000000000000001e-01
	-2.559708671986439e-15
	6.348166190761829e-20
	-4.891710715211341e-15
	4.449597674982589e-07
	1.498575504888714e-05
	1.351555723451140e-06
	4.193394027439610e-01

 31	3.100000000000001e-01
	-2.531778966012275e-15
	3.640424861072880e-20
	-4.977882222327338e-15
	4.930559846002654e-07
	1.673294806993285e-05
	1.509986279347971e-06
	4.193394183474616e-01

 32	3.200000000000001e-01
	-2.504299764343866e-15
	7.948658346647991e-21
	-5.063707601897641e-15
	5.459349905597621e-07
	1.868606256309876e-05
	1.686898541804282e-06
	4.193394357712742e-01

 33	3.300000000000001e-01
	-2.477281913562543e-15
	-2.191155007384818e-20
	-5.149131713497983e-15
	6.040096756607183e-07
	2.087002353790714e-05
	1.884473891015741e-06
	4.193394552302689e-01

 34	3.400000000000001e-01
	-2.450735564498547e-15
	-5.320271527747041e-20
	-5.234100598145461e-15
	6.677197058421613e-07
	2.331279502180611e-05
	2.105157870653034e-06
	4.193394769653392e-01

 35	3.500000000000001e-01
	-2.424670150320624e-15
	-8.595111704751839e-20
	-5.318561599717480e-15
	7.375320818659125e-07
	2.604571094754163e-05
	2.351692211749637e-06
	4.193395012465513e-01

 36	3.600000000000002e-01
	-2.399094367968638e-15
	-1.201830245922720e-19
	-5.402463479397226e-15
	8.139415504249958e-07
	2.910382499349839e-05
	2.627150262046862e-06
	4.193395283766499e-01

 37	3.700000000000002e-01
	-2.374016162953356e-15
	-1.559247492244661e-19
	-5.485756522693093e-15
	8.974708475119788e-07
	3.252627539367011e-05
	2.934975991413497e-06
	4.193395586948856e-01

 38	3.800000000000002e-01
	-2.349442717523870e-15
	-1.932027012943788e-19
	-5.568392638639429e-15
	9.886707548913435e-07
	3.635665915862497e-05
	3.279026696384922e-06
	4.193395925812357e-01

 39	3.900000000000002e-01
	-2.325380442179813e-15
	-2.320434512063459e-19
	-5.650325450849598e-15
	1.088119951542732e-06
	4.064340835503421e-05
	3.663619462434707e-06
	4.193396304609727e-01

 40	4.000000000000002e-01
	-2.301834970483319e-15
	-2.724737943350957e-19
	-5.731510380155476e-15
	1.196424643505198e-06
	4.544015910089360e-05
	4.093581359199665e-06
	4.193396728096220e-01

 41	4.100000000000002e-01
	-2.278811157104340e-15
	-3.145208196504345e-19
	-5.811904718632382e-15
	1.314217957693131e-06
	5.080610178573825e-05
	4.574303239751936e-06
	4.193397201582488e-01

 42	4.200000000000002e-01
	-2.256313079013007e-15
	-3.582119818503926e-19
	-5.891467694871875e-15
	1.442159087988251e-06
	5.680629877888318e-05
	5.111796888841792e-06
	4.193397730991010e-01

 43	4.300000000000002e-01
	-2.234344039714108e-15
	-4.035751768013440e-19
	-5.970160530428350e-15
	1.580932185240236e-06
	6.351195362529326e-05
	5.712755116238019e-06
	4.193398322915297e-01

 44	4.400000000000002e-01
	-2.212906576401730e-15
	-4.506388200813444e-19
	-6.047946487426720e-15
	1.731244986703694e-06
	7.100061355258046e-05
	6.384614220191996e-06
	4.193398984681440e-01

 45	4.500000000000002e-01
	-2.192002469896919e-15
	-4.994319284243563e-19
	-6.124790907377607e-15
	1.893827184849922e-06
	7.935628515190730e-05
	7.135618054151219e-06
	4.193399724411235e-01

 46	4.600000000000002e-01
	-2.171632757217582e-15
	-5.499842038685322e-19
	-6.200661241303221e-15
	2.069428540334219e-06
	8.866944149999076e-05
	7.974882720036426e-06
	4.193400551085958e-01

 47	4.700000000000003e-01
	-2.151797746618242e-15
	-6.023261204169127e-19
	-6.275527071330460e-15
	2.258816749057655e-06
	9.903689792675692e-05
	8.912460688159808e-06
	4.193401474609570e-01

 48	4.800000000000003e-01
	-2.132497034927504e-15
	-6.564890130287373e-19
	-6.349360123957390e-15
	2.462775078586775e-06
	1.105615332831739e-04
	9.959402913428162e-06
	4.193402505869960e-01

 49	4.900000000000003e-01
	-2.113729527003180e-15
	-7.125051687703043e-19
	-6.422134275245196e-15
	2.682099794505783e-06
	1.233518341093423e-04
	1.112781728790103e-05
	4.193403656796479e-01

 50	5.000000000000002e-01
	-2.095493457119125e-15
	-7.704079199661632e-19
	-6.493825548228728e-15
	2.917597402365159e-06
	1.375212407188801e-04
	1.243092155091181e-05
	4.193404940412211e-01

 51	5.100000000000002e-01
	-2.077786412093658e-15
	-8.302317392076904e-19
	-6.564412102876237e-15
	3.170081735531530e-06
	1.531872770552435e-04
	1.388308858132703e-05
	4.193406370878490e-01

 52	5.200000000000002e-01
	-2.060605355967240e-15
	-8.920123360892743e-19
	-6.633874218960531e-15
	3.440370923194695e-06
	1.704704503547183e-04
	1.549988183497035e-05
	4.193407963529922e-01

 53	5.300000000000002e-01
	-2.043946656036447e-15
	-9.557867555615654e-19
	-6.702194272231699e-15
	3.729284275816129e-06
	1.894929122319167e-04
	1.729807857757227e-05
	4.193409734897256e-01

 54	5.400000000000003e-01
	-2.027806110052321e-15
	-1.021593477807230e-18
	-6.769356704304042e-15
	4.037639127184865e-06
	2.103768797787236e-04
	1.929567851385674e-05
	4.193411702715856e-01

 55	5.500000000000003e-01
	-2.012178974393972e-15
	-1.089472519563835e-18
	-6.835347986687659e-15
	4.366247672799405e-06
	2.332428235444879e-04
	2.151189544013041e-05
	4.193413885917475e-01

 56	5.600000000000003e-01
	-1.997059993032017e-15
	-1.159465536837144e-18
	-6.900156579408791e-15
	4.715913843383356e-06
	2.582074386550969e-04
	2.396712966314867e-05
	4.193416304603081e-01

 57	5.700000000000003e-01
	-1.982443427101946e-15
	-1.231615928967169e-18
	-6.963772884671658e-15
	5.087430249904896e-06
	2.853814255404429e-04
	2.668291914186411e-05
	4.193418979994644e-01

 58	5.800000000000003e-01
	-1.968323084913793e-15
	-1.305968944028683e-18
	-7.026189196019295e-15
	5.481575232526139e-06
	3.148671173805751e-04
	2.968186762722694e-05
	4.193421934364276e-01

 59	5.900000000000003e-01
	-1.954692352231905e-15
	-1.382571785567032e-18
	-7.087399643451428e-15
	5.899110040577311e-06
	3.467560019645912e-04
	3.298754850042578e-05
	4.193425190939514e-01

 60	6.000000000000003e-01
	-1.941544222666693e-15
	-1.461473720689738e-18
	-7.147400134955013e-15
	6.340776164152576e-06
	3.811261956217375e-04
	3.662438353846702e-05
	4.193428773783635e-01

 61	6.100000000000003e-01
	-1.928871328029391e-15
	-1.542726189553058e-18
	-7.206188294895811e-15
	6.807292830574825e-06
	4.180399356216887e-04
	4.061749645850268e-05
	4.193432707651393e-01

 62	6.200000000000003e-01
	-1.916665968509863e-15
	-1.626382916302125e-18
	-7.263763399711463e-15
	7.299354671193506e-06
	4.575411643296314e-04
	4.499254179343446e-05
	4.193437017820266e-01

 63	6.300000000000003e-01
	-1.904920142547785e-15
	-1.712500021542588e-18
	-7.320126311333407e-15
	7.817629556233672e-06
	4.996532828499981e-04
	4.977551040941836e-05
	4.193441729898738e-01

 64	6.400000000000003e-01
	-1.893625576277137e-15
	-1.801136136440358e-18
	-7.375279408752074e-15
	8.362756588232247e-06
	5.443771533865229e-04
	5.499251376386793e-05
	4.193446869613632e-01

 65	6.500000000000004e-01
	-1.882773752434533e-15
	-1.892352518565608e-18
	-7.429226518123073e-15
	8.935344238503730e-06
	5.916894276951829e-04
	6.066954978870745e-05
	4.193452462579367e-01

 66	6.600000000000004e-01
	-1.872355938631922e-15
	-1.986213169616764e-18
	-7.481972841795193e-15
	9.535968606561253e-06
	6.415412735858579e-04
	6.683225403314684e-05
	4.193458534052656e-01

 67	6.700000000000004e-01
	-1.862363214904456e-15
	-2.082784955179590e-18
	-7.533524886622181e-15
	1.016517177989179e-05
	6.938575624139869e-04
	7.350564037710012e-05
	4.193465108676959e-01

 68	6.800000000000004e-01
	-1.852786500454360e-15
	-2.182137726697058e-18
	-7.583890391900761e-15
	1.082346027123657e-05
	7.485365680919374e-04
	8.071383619538560e-05
	4.193472210221514e-01

 69	6.900000000000004e-01
	-1.843616579521376e-15
	-2.284344445845269e-18
	-7.633078257257266e-15
	1.151130351269573e-05
	8.054502127636835e-04
	8.847981728197478e-05
	4.193479861320079e-01

 70	7.000000000000004e-01
	-1.834844126319903e-15
	-2.389481311533004e-18
	-7.681098470784394e-15
	1.222913239051469e-05
	8.644448765606790e-04
	9.682514810609672e-05
	4.193488083215060e-01

 71	7.100000000000004e-01
	-1.826459728992058e-15
	-2.497627889762148e-18
	-7.727962037709071e-15
	1.297733781109312e-05
	9.253427696065821e-04
	1.057697330486090e-04
	4.193496895512410e-01

 72	7.200000000000004e-01
	-1.818453912534745e-15
	-2.608867246609226e-18
	-7.773680909851142e-15
	1.375626929716672e-05
	9.879438446092981e-04
	1.153315841471611e-04
	4.193506315952788e-01

 73	7.300000000000004e-01
	-1.810817160667187e-15
	-2.723286084609388e-18
	-7.818267916111654e-15
	1.456623362268448e-05
	1.052028208985422e-03
	1.255266105617489e-04
	4.193516360204235e-01

 74	7.400000000000004e-01
	-1.803539936613249e-15
	-2.840974882846312e-18
	-7.861736694208971e-15
	1.540749350494767e-05
	1.117358977516868e-03
	1.363684344678558e-04
	4.193527041680842e-01

 75	7.500000000000004e-01
	-1.796612702780520e-15
	-2.962028041073807e-18
	-7.904101623860041e-15
	1.628026638234150e-05
	1.183685490980613e-03
	1.478682374119375e-04
	4.193538371391408e-01

 76	7.600000000000005e-01
	-1.790025939325118e-15
	-3.086544028216869e-18
	-7.945377761583922e-15
	1.718472331471204e-05
	1.250746813816859e-03
	1.600346403516296e-04
	4.193550357821456e-01

 77	7.700000000000005e-01
	-1.783770161597754e-15
	-3.214625535621163e-18
	-7.985580777284843e-15
	1.812098805042661e-05
	1.318275415308694e-03
	1.728736196860004e-04
	4.193563006850539e-01

 78	7.800000000000005e-01
	-1.777835936472823e-15
	-3.346379635441869e-18
	-8.024726892752269e-15
	1.908913630880223e-05
	1.386000934299577e-03
	1.863884605991932e-04
	4.193576321706376e-01

 79	7.900000000000005e-01
	-1.772213897567892e-15
	-3.481917944582783e-18
	-8.062832822196533e-15
	2.008919532848337e-05
	1.453653927281578e-03
	2.005797480363858e-04
	4.193590302956126e-01

 80	8.000000000000005e-01
	-1.766894759366173e-15
	-3.621356794618559e-18
	-8.099915714920014e-15
	2.112114373125820e-05
	1.520969503598565e-03
	2.154453946459954e-04
	4.193604948534052e-01

 81	8.100000000000005e-01
	-1.761869330259289e-15
	-3.764817408150220e-18
	-8.135993100205946e-15
	2.218491174670705e-05
	1.587690759144187e-03
	2.309807040958350e-04
	4.193620253803924e-01

 82	8.200000000000005e-01
	-1.757128524531996e-15
	-3.912426082066133e-18
	-8.171082834489525e-15
	2.328038183617124e-05
	1.653571930719488e-03
	2.471784673378845e-04
	4.193636211654023e-01

 83	8.300000000000005e-01
	-1.752663373314243e-15
	-4.064314378197587e-18
	-8.205203050859828e-15
	2.440738974519862e-05
	1.718381206432376e-03
	2.640290886844515e-04
	4.193652812621403e-01

 84	8.400000000000005e-01
	-1.748465034529312e-15
	-4.220619321876782e-18
	-8.238372110925045e-15
	2.556572600239176e-05
	1.781903142368873e-03
	2.815207379878447e-04
	4.193670045041974e-01

 85	8.500000000000005e-01
	-1.744524801869697e-15
	-4.381483608925068e-18
	-8.270608559059271e-15
	2.675513787011002e-05
	1.843940651419235e-03
	2.996395247985244e-04
	4.193687895222064e-01

 86	8.600000000000005e-01
	-1.740834112834909e-15
	-4.547055821615770e-18
	-8.301931079034910e-15
	2.797533173943722e-05
	1.904316545805500e-03
	3.183696901166175e-04
	4.193706347627433e-01

 87	8.700000000000006e-01
	-1.737384555867300e-15
	-4.717490654175588e-18
	-8.332358453032358e-15
	2.922597594893854e-05
	1.962874629817059e-03
	3.376938112453278e-04
	4.193725385085171e-01

 88	8.800000000000006e-01
	-1.734167876623694e-15
	-4.892949148408573e-18
	-8.361909523006977e-15
	3.050670399462956e-05
	2.019480352916800e-03
	3.575930152916264e-04
	4.193744988994028e-01

 89	8.900000000000006e-01
	-1.731175983421939e-15
	-5.073598940044867e-18
	-8.390603154382737e-15
	3.181711808784075e-05
	2.074021045271896e-03
	3.780471970242476e-04
	4.193765139539089e-01

 90	9.000000000000006e-01
	-1.728400951902155e-15
	-5.259614516439667e-18
	-8.418458202032701e-15
	3.315679300872286e-05
	2.126405767577988e-03
	3.990352370719965e-04
	4.193785815906783e-01

 91	9.100000000000006e-01
	-1.725835028943207e-15
	-5.451177486268383e-18
	-8.445493478498159e-15
	3.452528019631602e-05
	2.176564814618484e-03
	4.205352168049825e-04
	4.193806996496582e-01

 92	9.200000000000006e-01
	-1.723470635875013e-15
	-5.648476861889423e-18
	-8.471727724390996e-15
	3.592211201157142e-05
	2.224448917302745e-03
	4.425246266649273e-04
	4.193828659126194e-01

 93	9.300000000000006e-01
	-1.721300371027291e-15
	-5.851709355068943e-18
	-8.497179580917931e-15
	3.734680610749426e-05
	2.270028191045128e-03
	4.649805651757807e-04
	4.193850781227776e-01

 94	9.400000000000006e-01
	-1.719317011654948e-15
	-6.061079686793761e-18
	-8.521867564460058e-15
	3.879886984059979e-05
	2.313290879462419e-03
	4.878799263516998e-04
	4.193873340032387e-01

 95	9.500000000000006e-01
	-1.717513515279859e-15
	-6.276800911922044e-18
	-8.545810043136964e-15
	4.027780465992880e-05
	2.354241941726882e-03
	5.111995737069278e-04
	4.193896312741515e-01

 96	9.600000000000006e-01
	-1.715883020487992e-15
	-6.499094759458902e-18
	-8.569025215281561e-15
	4.178311041371184e-05
	2.392901529807556e-03
	5.349164995455322e-04
	4.193919676684003e-01

 97	9.700000000000006e-01
	-1.714418847219801e-15
	-6.728191989274383e-18
	-8.591531089749295e-15
	4.331428951906868e-05
	2.429303398571736e-03
	5.590079686550343e-04
	4.193943409457511e-01

 98	9.800000000000006e-01
	-1.713114496590956e-15
	-6.964332766117061e-18
	-8.613345467983662e-15
	4.487085094653509e-05
	2.463493287609902e-03
	5.834516459367270e-04
	4.193967489054318e-01

 99	9.900000000000007e-01
	-1.711963650279062e-15
	-7.207767051820111e-18
	-8.634485927759154e-15
	4.645231397838863e-05
	2.495527308982962e-03
	6.082257078702660e-04
	4.193991893971083e-01

 100	1.000000000000001e+00
	-1.710960169510896e-15
	-7.458755016631418e-18
	-8.654969808522163e-15
	4.805821170733826e-05
	2.525470370131760e-03
	6.333089380263414e-04
	4.194016603302951e-01

 101	1.010000000000001e+00
	-1.710098093683212e-15
	-7.717567470650771e-18
	-8.674814198250635e-15
	4.968809424986607e-05
	2.553394656163366e-03
	6.586808071075924e-04
	4.194041596822322e-01

 102	1.020000000000001e+00
	-1.709371638648854e-15
	-7.984486316396808e-18
	-8.694035921753850e-15
	5.134153165607151e-05
	2.579378190822119e-03
	6.843215382143138e-04
	4.194066855043222e-01

 103	1.030000000000001e+00
	-1.708775194698329e-15
	-8.259805023584358e-18
	-8.712651530334697e-15
	5.301811650507666e-05
	2.603503490812790e-03
	7.102121582004165e-04
	4.194092359271746e-01

 104	1.040000000000001e+00
	-1.708303324265671e-15
	-8.543829127237215e-18
	-8.730677292738089e-15
	5.471746618169143e-05
	2.625856323873876e-03
	7.363345361091372e-04
	4.194118091644041e-01

 105	1.050000000000001e+00
	-1.707950759385796e-15
	-8.836876750325314e-18
	-8.748129187310823e-15
	5.643922483603076e-05
	2.646524577173537e-03
	7.626714097619801e-04
	4.194144035152396e-01

 106	1.060000000000001e+00
	-1.707712398929126e-15
	-9.139279152168698e-18
	-8.765022895300150e-15
	5.818306503299460e-05
	2.665597239257171e-03
	7.892064016222910e-04
	4.194170173660853e-01

 107	1.070000000000001e+00
	-1.707583305637808e-15
	-9.451381303915647e-18
	-8.781373795220079e-15
	5.994868910295959e-05
	2.683163495928854e-03
	8.159240250721316e-04
	4.194196491911379e-01

 108	1.080000000000001e+00
	-1.707558702986363e-15
	-9.773542492467130e-18
	-8.797196958216875e-15
	6.173583020865981e-05
	2.699311938090657e-03
	8.428096822323882e-04
	4.194222975521715e-01

 109	1.090000000000001e+00
	-1.707633971888145e-15
	-1.010613695428934e-17
	-8.812507144367458e-15
	6.354425314608881e-05
	2.714129877671043e-03
	8.698496544262301e-04
	4.194249610975941e-01

 110	1.100000000000001e+00
	-1.707804647267719e-15
	-1.044955454062811e-17
	-8.827318799846603e-15
	6.537375489936326e-05
	2.727702766311011e-03
	8.970310863394790e-04
	4.194276385608867e-01

 111	1.110000000000001e+00
	-1.708066414517731e-15
	-1.080420141571677e-17
	-8.841646054901624e-15
	6.722416497093194e-05
	2.740113710402351e-03
	9.243419648724392e-04
	4.194303287585132e-01

 112	1.120000000000001e+00
	-1.708415105857738e-15
	-1.117050078964501e-17
	-8.855502722575262e-15
	6.909534550933325e-05
	2.751443075339536e-03
	9.517710936096029e-04
	4.194330305874101e-01

 113	1.130000000000001e+00
	-1.708846696610990e-15
	-1.154889368764616e-17
	-8.868902298120420e-15
	7.098719125701134e-05
	2.761768171408410e-03
	9.793080637600091e-04
	4.194357430221189e-01

 114	1.140000000000001e+00
	-1.709357301414109e-15
	-1.193983975764239e-17
	-8.881857959052571e-15
	7.289962934053510e-05
	2.771163013543196e-03
	1.006943222344022e-03
	4.194384651116524e-01

 115	1.150000000000001e+00
	-1.709943170373345e-15
	-1.234381811798331e-17
	-8.894382565788138e-15
	7.483261892504253e-05
	2.779698147194873e-03
	1.034667638324758e-03
	4.194411959761498e-01

 116	1.160000000000001e+00
	-1.710600685179940e-15
	-1.276132824740549e-17
	-8.906488662819919e-15
	7.678615075388093e-05
	2.787440532726644e-03
	1.062473067305449e-03
	4.194439348034093e-01

 117	1.170000000000001e+00
	-1.711326355196185e-15
	-1.319289091934536e-17
	-8.918188480382464e-15
	7.876024659336708e-05
	2.794453481050403e-03
	1.090351915339997e-03
	4.194466808453110e-01

 118	1.180000000000001e+00
	-1.712116813522566e-15
	-1.363904918283839e-17
	-8.929493936563237e-15
	8.075495860132751e-05
	2.800796633607382e-03
	1.118297202332849e-03
	4.194494334142148e-01

 119	1.190000000000001e+00
	-1.712968813055523e-15
	-1.410036939234712e-17
	-8.940416639817260e-15
	8.277036863673238e-05
	2.806525980250470e-03
	1.146302525437849e-03
	4.194521918793556e-01

 120	1.200000000000001e+00
	-1.713879222544435e-15
	-1.457744228897708e-17
	-8.950967891845477e-15
	8.480658752631003e-05
	2.811693909079850e-03
	1.174362022803930e-03
	4.194549556632651e-01

 121	1.210000000000001e+00
	-1.714845022655451e-15
	-1.507088413565150e-17
	-8.961158690798951e-15
	8.686375430255763e-05
	2.816349282798490e-03
	1.202470337958508e-03
	4.194577242382680e-01

 122	1.220000000000001e+00
	-1.715863302049058e-15
	-1.558133790894463e-17
	-8.970999734773511e-15
	8.894203542612761e-05
	2.820537536674225e-03
	1.230622585068077e-03
	4.194604971230553e-01

 123	1.230000000000001e+00
	-1.716931253477499e-15
	-1.610947455039421e-17
	-8.980501425560926e-15
	9.104162400413383e-05
	2.824300793707278e-03
	1.258814315268869e-03
	4.194632738793674e-01

 124	1.240000000000001e+00
	-1.718046169907278e-15
	-1.665599428024748e-17
	-8.989673872625356e-15
	9.316273901455860e-05
	2.827677993097412e-03
	1.287041484219110e-03
	4.194660541088003e-01

 125	1.250000000000001e+00
	-1.719205440671454e-15
	-1.722162797673121e-17
	-8.998526897275003e-15
	9.530562454564156e-05
	2.830705028576047e-03
	1.315300420987826e-03
	4.194688374497333e-01

 126	1.260000000000001e+00
	-1.720406547655659e-15
	-1.780713862407066e-17
	-9.007070037001211e-15
	9.747054905790664e-05
	2.833414893610595e-03
	1.343587798363072e-03
	4.194716235744118e-01

 127	1.270000000000001e+00
	-1.721647061521206e-15
	-1.841332283263249e-17
	-9.015312549958689e-15
	9.965780467535880e-05
	2.835837830898541e-03
	1.371900604634772e-03
	4.194744121861602e-01

 128	1.280000000000001e+00
	-1.722924637968032e-15
	-1.904101243470680e-17
	-9.023263419562365e-15
	1.018677065113349e-04
	2.838001483944832e-03
	1.400236116883413e-03
	4.194772030167517e-01

 129	1.290000000000001e+00
	-1.724237014039733e-15
	-1.969107615959542e-17
	-9.030931359177846e-15
	1.041005920335472e-04
	2.839931048858263e-03
	1.428591875785614e-03
	4.194799958239332e-01

 130	1.300000000000001e+00
	-1.725582004472398e-15
	-2.036442139182961e-17
	-9.038324816883934e-15
	1.063568204720204e-04
	2.841649424810883e-03
	1.456965661930663e-03
	4.194827903890797e-01

 131	1.310000000000001e+00
	-1.726957498088446e-15
	-2.106199601648829e-17
	-9.045451980287259e-15
	1.086367722728321e-04
	2.843177361879483e-03
	1.485355473627773e-03
	4.194855865150208e-01

 132	1.320000000000001e+00
	-1.728361454236356e-15
	-2.178479035575280e-17
	-9.052320781370159e-15
	1.109408485999296e-04
	2.844533605232781e-03
	1.513759506172577e-03
	4.194883840239818e-01

 133	1.330000000000001e+00
	-1.729791899276618e-15
	-2.253383920097885e-17
	-9.058938901354446e-15
	1.132694708866655e-04
	2.845735034842268e-03
	1.542176132531824e-03
	4.194911827557026e-01

 134	1.340000000000001e+00
	-1.731246923113922e-15
	-2.331022394474326e-17
	-9.065313775564850e-15
	1.156230804382247e-04
	2.846796800082690e-03
	1.570603885398395e-03
	4.194939825656496e-01

 135	1.350000000000001e+00
	-1.732724675775274e-15
	-2.411507481745648e-17
	-9.071452598276885e-15
	1.180021380856346e-04
	2.847732448749973e-03
	1.599041440562836e-03
	4.194967833233876e-01

 136	1.360000000000001e+00
	-1.734223364033354e-15
	-2.494957323330093e-17
	-9.077362327535385e-15
	1.204071238917036e-04
	2.848554050164482e-03
	1.627487601543985e-03
	4.194995849110641e-01

 137	1.370000000000001e+00
	-1.735741248074191e-15
	-2.581495425040074e-17
	-9.083049689930324e-15
	1.228385369089113e-04
	2.849272312146155e-03
	1.655941285418354e-03
	4.195023872220145e-01

 138	1.380000000000001e+00
	-1.737276638207842e-15
	-2.671250915027217e-17
	-9.088521185318218e-15
	1.252968949890166e-04
	2.849896691748591e-03
	1.684401509786445e-03
	4.195051901594754e-01

 139	1.390000000000001e+00
	-1.738827891620702e-15
	-2.764358814173847e-17
	-9.093783091477620e-15
	1.277827346439413e-04
	2.850435499723132e-03
	1.712867380813401e-03
	4.195079936354048e-01

 140	1.400000000000001e+00
	-1.740393409167648e-15
	-2.860960319462515e-17
	-9.098841468688518e-15
	1.302966109573214e-04
	2.850895998753230e-03
	1.741338082281466e-03
	4.195107975694158e-01

 141	1.410000000000001e+00
	-1.741971632202114e-15
	-2.961203100866411e-17
	-9.103702164225989e-15
	1.328390975460104e-04
	2.851284495556372e-03
	1.769812865592648e-03
	4.195136018877720e-01

 142	1.420000000000001e+00
	-1.743561039442097e-15
	-3.065241612313033e-17
	-9.108370816759243e-15
	1.354107865706983e-04
	2.851606426995683e-03
	1.798291040660743e-03
	4.195164065225083e-01

 143	1.430000000000001e+00
	-1.745160143869719e-15
	-3.173237417282793e-17
	-9.112852860647845e-15
	1.380122887947864e-04
	2.851866440379653e-03
	1.826771967634008e-03
	4.195192114106061e-01

 144	1.440000000000001e+00
	-1.746767489662030e-15
	-3.285359529608934e-17
	-9.117153530127636e-15
	1.406442336906028e-04
	2.852068468155459e-03
	1.855255049391308e-03
	4.195220164932540e-01

 145	1.450000000000001e+00
	-1.748381649150622e-15
	-3.401784770049075e-17
	-9.121277863379155e-15
	1.433072695920402e-04
	2.852215797221734e-03
	1.883739724756880e-03
	4.195248217151867e-01

 146	1.460000000000001e+00
	-1.750001219807272e-15
	-3.522698139199315e-17
	-9.125230706472470e-15
	1.460020638927167e-04
	2.852311133100905e-03
	1.912225462381224e-03
	4.195276270240741e-01

 147	1.470000000000001e+00
	-1.751624821253186e-15
	-3.648293207317828e-17
	-9.129016717182096e-15
	1.487293032887762e-04
	2.852356659220134e-03
	1.940711755237994e-03
	4.195304323699836e-01

 148	1.480000000000001e+00
	-1.753251092288988e-15
	-3.778772521617369e-17
	-9.132640368666845e-15
	1.514896940654957e-04
	2.852354091554886e-03
	1.969198115689296e-03
	4.195332377048938e-01

 149	1.490000000000001e+00
	-1.754878687942786e-15
	-3.914348031575072e-17
	-9.136105953009473e-15
	1.542839624269190e-04
	2.852304728890232e-03
	1.997684071074424e-03
	4.195360429822567e-01

 150	1.500000000000001e+00
	-1.756506276533639e-15
	-4.055241532787386e-17
	-9.139417584611436e-15
	1.571128548677953e-04
	2.852209498953486e-03
	2.026169159779464e-03
	4.195388481566177e-01

 151	1.510000000000001e+00
	-1.758132536747615e-15
	-4.201685129877170e-17
	-9.142579203438846e-15
	1.599771385871897e-04
	2.852069000667790e-03
	2.054652927747897e-03
	4.195416531832606e-01

 152	1.520000000000001e+00
	-1.759756154724038e-15
	-4.353921718924768e-17
	-9.145594578115358e-15
	1.628776019431842e-04
	2.851883542770231e-03
	2.083134925394562e-03
	4.195444580179188e-01

 153	1.530000000000001e+00
	-1.761375821149120e-15
	-4.512205489858661e-17
	-9.148467308859055e-15
	1.658150549482097e-04
	2.851653179031080e-03