Title: ** sch_path: /home/andylithia/openmpw/project-yatsuhashi-chip1/xschem/gmid_test/nmos_test.sch
Date: Tue Jul 19 23:15:45  2022
Plotname: DC transfer characteristic
Flags: real
No. Variables: 8
No. Points: 181
Variables:
	0	v(v-sweep)	voltage
	1	@m.xm1.msky130_fd_pr__nfet_01v8[cgb]	capacitance
	2	@m.xm1.msky130_fd_pr__nfet_01v8[cgd]	capacitance
	3	@m.xm1.msky130_fd_pr__nfet_01v8[cgs]	capacitance
	4	@m.xm1.msky130_fd_pr__nfet_01v8[gds]	admittance
	5	@m.xm1.msky130_fd_pr__nfet_01v8[gm]	admittance
	6	i(@m.xm1.msky130_fd_pr__nfet_01v8[id])	current
	7	v(@m.xm1.msky130_fd_pr__nfet_01v8[vth])	voltage
Values:
 0	0.000000000000000e+00
	-1.342600791579188e-14
	-1.081322045528766e-18
	-2.689038954051147e-14
	3.031909247369115e-08
	1.157137334262357e-06
	1.518860155036296e-07
	1.736375404308544e-01

 1	1.000000000000000e-02
	-1.328155463080827e-14
	-1.106170981982329e-18
	-2.723552439878716e-14
	3.260527978091627e-08
	1.248062805902087e-06
	1.639062268808725e-07
	1.736375413569614e-01

 2	2.000000000000000e-02
	-1.313909073720687e-14
	-1.131546469012566e-18
	-2.757987620850475e-14
	3.505445737137709e-08
	1.346213184828861e-06
	1.768713372974975e-07
	1.736375423567597e-01

 3	3.000000000000000e-02
	-1.299864201298592e-14
	-1.157458349408684e-18
	-2.792333262204710e-14
	3.767729992319283e-08
	1.452189157791964e-06
	1.908565561030796e-07
	1.736375434362467e-01

 4	4.000000000000000e-02
	-1.286023326370184e-14
	-1.183916628549276e-18
	-2.826578229485435e-14
	4.048509257748792e-08
	1.566645498656648e-06
	2.059433657579856e-07
	1.736375446019410e-01

 5	5.000000000000000e-02
	-1.272388827958004e-14
	-1.210931477397137e-18
	-2.860711501315939e-14
	4.348975824804260e-08
	1.690296312318009e-06
	2.222200885133376e-07
	1.736375458609283e-01

 6	6.000000000000000e-02
	-1.258962979519662e-14
	-1.238513235580535e-18
	-2.894722181906743e-14
	4.670388556701318e-08
	1.823920787530097e-06
	2.397825080391383e-07
	1.736375472209182e-01

 7	7.000000000000001e-02
	-1.245747945179847e-14
	-1.266672414563639e-18
	-2.928599513269450e-14
	5.014075743973194e-08
	1.968369501630420e-06
	2.587345513025882e-07
	1.736375486902992e-01

 8	8.000000000000000e-02
	-1.232745776232080e-14
	-1.295419700908777e-18
	-2.962332887108935e-14
	5.381438017829876e-08
	2.124571322371491e-06
	2.791890364396084e-07
	1.736375502782166e-01

 9	9.000000000000000e-02
	-1.219958407915260e-14
	-1.324765959634114e-18
	-2.995911856367737e-14
	5.773951318031319e-08
	2.293540954181289e-06
	3.012684928254573e-07
	1.736375519946300e-01

 10	9.999999999999999e-02
	-1.207387656469200e-14
	-1.354722237667815e-18
	-3.029326146397513e-14
	6.193169911558725e-08
	2.476387178109964e-06
	3.251060600331724e-07
	1.736375538504071e-01

 11	1.100000000000000e-01
	-1.195035216472421e-14
	-1.385299767403224e-18
	-3.062565665734162e-14
	6.640729458015470e-08
	2.674321836428613e-06
	3.508464728700732e-07
	1.736375558574059e-01

 12	1.200000000000000e-01
	-1.182902658464650e-14
	-1.416509970356933e-18
	-3.095620516454389e-14
	7.118350117320318e-08
	2.888669614257714e-06
	3.786471401993409e-07
	1.736375580285739e-01

 13	1.300000000000000e-01
	-1.170991426855527e-14
	-1.448364460932654e-18
	-3.128481004093200e-14
	7.627839694878848e-08
	3.120878671650216e-06
	4.086793257830483e-07
	1.736375603780612e-01

 14	1.400000000000000e-01
	-1.159302838120126e-14
	-1.480875050294544e-18
	-3.161137647103432e-14
	8.171096819033725e-08
	3.372532180156019e-06
	4.411294399206877e-07
	1.736375629213294e-01

 15	1.500000000000000e-01
	-1.147838079281079e-14
	-1.514053750352217e-18
	-3.193581185839979e-14
	8.750114145188521e-08
	3.645360817960981e-06
	4.762004511980538e-07
	1.736375656752955e-01

 16	1.600000000000000e-01
	-1.136598206676130e-14
	-1.547912777860880e-18
	-3.225802591053255e-14
	9.366981580590726e-08
	3.941256277133830e-06
	5.141134282002097e-07
	1.736375686584678e-01

 17	1.700000000000000e-01
	-1.125584145009157e-14
	-1.582464558639656e-18
	-3.257793071878053e-14
	1.002388952332458e-07
	4.262285835217932e-06
	5.551092215714241e-07
	1.736375718911113e-01

 18	1.800000000000000e-01
	-1.114796686681826e-14
	-1.617721731911195e-18
	-3.289544083305865e-14
	1.072313210862042e-07
	4.610708041266248e-06
	5.994502973174401e-07
	1.736375753954192e-01

 19	1.900000000000000e-01
	-1.104236491402243e-14
	-1.653697154765878e-18
	-3.321047333130435e-14
	1.146711045512081e-07
	4.988989563313447e-06
	6.474227327315271e-07
	1.736375791957077e-01

 20	2.000000000000000e-01
	-1.093904086066166e-14
	-1.690403906754101e-18
	-3.352294788358227e-14
	1.225833590325663e-07
	5.399823240085633e-06
	6.993383867755545e-07
	1.736375833186262e-01

 21	2.100000000000000e-01
	-1.083799864905631e-14
	-1.727855294609028e-18
	-3.383278681077196e-14
	1.309943323737827e-07
	5.846147374332186e-06
	7.555372571490553e-07
	1.736375877933979e-01

 22	2.200000000000001e-01
	-1.073924089899014e-14
	-1.766064857104812e-18
	-3.413991513779313e-14
	1.399314388275851e-07
	6.331166298393016e-06
	8.163900366204417e-07
	1.736375926520600e-01

 23	2.300000000000001e-01
	-1.064276891436010e-14
	-1.805046370052253e-18
	-3.444426064133661e-14
	1.494232906801915e-07
	6.858372234341271e-06
	8.823008814598860e-07
	1.736375979297574e-01

 24	2.400000000000001e-01
	-1.054858269230283e-14
	-1.844813851436216e-18
	-3.474575389209147e-14
	1.594997294295399e-07
	7.431568461137653e-06
	9.537104049888173e-07
	1.736376036650443e-01

 25	2.500000000000001e-01
	-1.045668093471880e-14
	-1.885381566698446e-18
	-3.504432829147360e-14
	1.701918564110854e-07
	8.054893789548334e-06
	1.031098909327877e-06
	1.736376099002137e-01

 26	2.600000000000001e-01
	-1.036706106211132e-14
	-1.926764034168817e-18
	-3.533992010287758e-14
	1.815320627582919e-07
	8.732848331985602e-06
	1.114989868365859e-06
	1.736376166816743e-01

 27	2.700000000000001e-01
	-1.027971922964984e-14
	-1.968976030649917e-18
	-3.563246847749294e-14
	1.935540585782949e-07
	9.470320538803942e-06
	1.205953674767158e-06
	1.736376240603369e-01

 28	2.800000000000001e-01
	-1.019465034536534e-14
	-2.012032597157395e-18
	-3.592191547473759e-14
	2.062929012161567e-07
	1.027261545480283e-05
	1.304611663462589e-06
	1.736376320920607e-01

 29	2.900000000000001e-01
	-1.011184809037861e-14
	-2.055949044821408e-18
	-3.620820607738102e-14
	2.197850224738684e-07
	1.114548412966311e-05
	1.411640423507433e-06
	1.736376408381149e-01

 30	3.000000000000001e-01
	-1.003130494106051e-14
	-2.100740960952156e-18
	-3.649128820144090e-14
	2.340682546426592e-07
	1.209515409368843e-05
	1.527776409416933e-06
	1.736376503657025e-01

 31	3.100000000000001e-01
	-9.953012193019154e-15
	-2.146424215273951e-18
	-3.677111270095255e-14
	2.491818551993809e-07
	1.312836078549828e-05
	1.653820862080977e-06
	1.736376607485118e-01

 32	3.200000000000001e-01
	-9.876959986806765e-15
	-2.193014966332623e-18
	-3.704763336772318e-14
	2.651665300097168e-07
	1.425237979119998e-05
	1.790645048091494e-06
	1.736376720673222e-01

 33	3.300000000000001e-01
	-9.803137335236170e-15
	-2.240529668079389e-18
	-3.732080692619528e-14
	2.820644548727260e-07
	1.547505972508014e-05
	1.939195824764594e-06
	1.736376844106604e-01

 34	3.400000000000001e-01
	-9.731532152195965e-15
	-2.288985076636676e-18
	-3.759059302355498e-14
	2.999192952330437e-07
	1.680485555007559e-05
	2.100501536282142e-06
	1.736376978754970e-01

 35	3.500000000000001e-01
	-9.662131282851424e-15
	-2.338398257249953e-18
	-3.785695421523123e-14
	3.187762238786433e-07
	1.825086210232418e-05
	2.275678244189900e-06
	1.736377125680111e-01

 36	3.600000000000002e-01
	-9.594920535118119e-15
	-2.388786591430576e-18
	-3.811985594594240e-14
	3.386819364339185e-07
	1.982284754815653e-05
	2.465936292953394e-06
	1.736377286044076e-01

 37	3.700000000000002e-01
	-9.529884712294470e-15
	-2.440167784293577e-18
	-3.837926652645454e-14
	3.596846644497473e-07
	2.153128646421299e-05
	2.672587208367070e-06
	1.736377461117893e-01

 38	3.800000000000002e-01
	-9.467007646739679e-15
	-2.492559872096530e-18
	-3.863515710622403e-14
	3.818341858845381e-07
	2.338739219229524e-05
	2.897050923323157e-06
	1.736377652290951e-01

 39	3.900000000000002e-01
	-9.406272234484332e-15
	-2.545981229983598e-18
	-3.888750164210432e-14
	4.051818327629667e-07
	2.540314808049730e-05
	3.140863321760771e-06
	1.736377861080986e-01

 40	4.000000000000002e-01
	-9.347660470661917e-15
	-2.600450579940544e-18
	-3.913627686330125e-14
	4.297804957926521e-07
	2.759133718161370e-05
	3.405684087526784e-06
	1.736378089144730e-01

 41	4.100000000000002e-01
	-9.291153485650211e-15
	-2.655986998965305e-18
	-3.938146223276878e-14
	4.556846257132533e-07
	2.996556993937997e-05
	3.693304840384668e-06
	1.736378338289239e-01

 42	4.200000000000002e-01
	-9.236731581814644e-15
	-2.712609927460305e-18
	-3.962303990523846e-14
	4.829502311480706e-07
	3.254030935346316e-05
	4.005657536511680e-06
	1.736378610483813e-01

 43	4.300000000000002e-01
	-9.184374270746131e-15
	-2.770339177852375e-18
	-3.986099468208147e-14
	5.116348727249587e-07
	3.533089307606798e-05
	4.344823105539151e-06
	1.736378907872585e-01

 44	4.400000000000002e-01
	-9.134060310889744e-15
	-2.829194943444702e-18
	-4.009531396320275e-14
	5.417976532319864e-07
	3.835355185744551e-05
	4.713040290535921e-06
	1.736379232787829e-01

 45	4.500000000000002e-01
	-9.085767745462487e-15
	-2.889197807508128e-18
	-4.032598769616955e-14
	5.734992035738941e-07
	4.162542372546803e-05
	5.112714651341647e-06
	1.736379587763855e-01

 46	4.600000000000002e-01
	-9.039473940561450e-15
	-2.950368752617875e-18
	-4.055300832277698e-14
	6.068016642982319e-07
	4.516456325681811e-05
	5.546427685362695e-06
	1.736379975551420e-01

 47	4.700000000000003e-01
	-8.995155623367399e-15
	-3.012729170241174e-18
	-4.077637072325245e-14
	6.417686624658163e-07
	4.898994527538085e-05
	6.016946013401026e-06
	1.736380399132692e-01

 48	4.800000000000003e-01
	-8.952788920351717e-15
	-3.076300870582765e-18
	-4.099607215830144e-14
	6.784652836489131e-07
	5.312146229830966e-05
	6.527230571357293e-06
	1.736380861736896e-01

 49	4.900000000000003e-01
	-8.912349395398104e-15
	-3.141106092695612e-18
	-4.121211220919457e-14
	7.169580388529580e-07
	5.757991504322540e-05
	7.080445741810504e-06
	1.736381366856105e-01

 50	5.000000000000002e-01
	-8.873812087755550e-15
	-3.207167514862543e-18
	-4.142449271609326e-14
	7.573148261739066e-07
	6.238699531231955e-05
	7.679968352610380e-06
	1.736381918261518e-01

 51	5.100000000000002e-01
	-8.837151549740654e-15
	-3.274508265257234e-18
	-4.163321771481096e-14
	7.996048870239920e-07
	6.756526058206247e-05
	8.329396462830852e-06
	1.736382520019905e-01

 52	5.200000000000002e-01
	-8.802341884114300e-15
	-3.343151932891057e-18
	-4.183829337219947e-14
	8.438987567841870e-07
	7.313809965193121e-05
	9.032557849830742e-06
	1.736383176510201e-01

 53	5.300000000000002e-01
	-8.769356781059051e-15
	-3.413122578853719e-18
	-4.203972792035042e-14
	8.902682097723920e-07
	7.912968874324236e-05
	9.793518104879899e-06
	1.736383892439940e-01

 54	5.400000000000003e-01
	-8.738169554690358e-15
	-3.484444747855367e-18
	-4.223753158979337e-14
	9.387861984524572e-07
	8.556493749075565e-05
	1.061658823896310e-05
	1.736384672861621e-01

 55	5.500000000000003e-01
	-8.708753179036557e-15
	-3.557143480079331e-18
	-4.243171654187101e-14
	9.895267868514083e-07
	9.246942433612468e-05
	1.150633169512368e-05
	1.736385523188548e-01

 56	5.600000000000003e-01
	-8.681080323429130e-15
	-3.631244323351818e-18
	-4.262229680046278e-14
	1.042565078200327e-06
	9.986932091408638e-05
	1.246757065919537e-05
	1.736386449210152e-01

 57	5.700000000000003e-01
	-8.655123387247210e-15
	-3.706773345639781e-18
	-4.280928818322578e-14
	1.097977136868934e-06
	1.077913051199370e-04
	1.350539155715922e-05
	1.736387457106393e-01

 58	5.800000000000003e-01
	-8.630854533965584e-15
	-3.783757147883700e-18
	-4.299270823251432e-14
	1.155839904724770e-06
	1.162624626603973e-04
	1.462514962480613e-05
	1.736388553461203e-01

 59	5.900000000000003e-01
	-8.608245724459520e-15
	-3.862222877175998e-18
	-4.317257614613259e-14
	1.216231112115181e-06
	1.253101770191874e-04
	1.583247243404673e-05
	1.736389745274450e-01

 60	6.000000000000003e-01
	-8.587268749523779e-15
	-3.942198240294312e-18
	-4.334891270806989e-14
	1.279229183743839e-06
	1.349620079128345e-04
	1.713326226023869e-05
	1.736391039972471e-01

 61	6.100000000000003e-01
	-8.567895261566979e-15
	-4.023711517599266e-18
	-4.352174021936056e-14
	1.344913139792918e-06
	1.452455584704083e-04
	1.853369717644780e-05
	1.736392445416559e-01

 62	6.200000000000003e-01
	-8.550096805447438e-15
	-4.106791577307414e-18
	-4.369108242920306e-14
	1.413362492727144e-06
	1.561883315414490e-04
	2.004023076374939e-05
	1.736393969909247e-01

 63	6.300000000000003e-01
	-8.533844848419757e-15
	-4.191467890149669e-18
	-4.385696446646689e-14
	1.484657140305588e-06
	1.678175757173705e-04
	2.165959033162870e-05
	1.736395622198264e-01

 64	6.400000000000003e-01
	-8.519110809165283e-15
	-4.277770544426564e-18
	-4.401941277170853e-14
	1.558877255421425e-06
	1.801601218406553e-04
	2.339877354934878e-05
	1.736397411477473e-01

 65	6.500000000000004e-01
	-8.505866085883898e-15
	-4.365730261471574e-18
	-4.417845502980997e-14
	1.636103173486862e-06
	1.932422109702367e-04
	2.526504339787979e-05
	1.736399347384820e-01

 66	6.600000000000004e-01
	-8.494082083427746e-15
	-4.455378411534080e-18
	-4.433412010334685e-14
	1.716415278179891e-06
	2.070893149672852e-04
	2.726592136266341e-05
	1.736401439996986e-01

 67	6.700000000000004e-01
	-8.483730239460996e-15
	-4.546747030093963e-18
	-4.448643796678627e-14
	1.799893886469709e-06
	2.217259510594387e-04
	2.940917880012341e-05
	1.736403699820296e-01

 68	6.800000000000004e-01
	-8.474782049633151e-15
	-4.639868834621550e-18
	-4.463543964160661e-14
	1.886619133937359e-06
	2.371754919292391e-04
	3.170282642537906e-05
	1.736406137777700e-01

 69	6.900000000000004e-01
	-8.467209091756979e-15
	-4.734777241794442e-18
	-4.478115713242516e-14
	1.976670861505341e-06
	2.534599730497931e-04
	3.415510188498915e-05
	1.736408765191956e-01

 70	7.000000000000004e-01
	-8.460983048984364e-15
	-4.831506385185232e-18
	-4.492362336421289e-14
	2.070128504783986e-06
	2.705998991531049e-04
	3.677445539664192e-05
	1.736411593764242e-01

 71	7.100000000000004e-01
	-8.456075731977328e-15
	-4.930091133434288e-18
	-4.506287212066781e-14
	2.167070987330233e-06
	2.886140518593549e-04
	3.956953345730341e-05
	1.736414635548683e-01

 72	7.200000000000004e-01
	-8.452459100073453e-15
	-5.030567108921436e-18
	-4.519893798381299e-14
	2.267576619195691e-06
	3.075193006144250e-04
	4.254916064226825e-05
	1.736417902922355e-01

 73	7.300000000000004e-01
	-8.450105281447936e-15
	-5.132970706950679e-18
	-4.533185627487845e-14
	2.371723002212452e-06
	3.273304191736329e-04
	4.572231953951770e-05
	1.736421408551009e-01

 74	7.400000000000004e-01
	-8.448986592277024e-15
	-5.237339115465099e-18
	-4.546166299651903e-14
	2.479586943526713e-06
	3.480599099283245e-04
	4.909812888651971e-05
	1.736425165350435e-01

 75	7.500000000000004e-01
	-8.449075554909525e-15
	-5.343710335305130e-18
	-4.558839477641642e-14
	2.591244378938917e-06
	3.697178383949326e-04
	5.268581999972329e-05
	1.736429186443629e-01

 76	7.600000000000005e-01
	-8.450344915055760e-15
	-5.452123201027965e-18
	-4.571208881230519e-14
	2.706770307644714e-06
	3.923116801708484e-04
	5.649471161017469e-05
	1.736433485114041e-01

 77	7.700000000000005e-01
	-8.452767658005206e-15
	-5.562617402303539e-18
	-4.583278281845889e-14
	2.826238739991182e-06
	4.158461826056328e-04
	6.053418324147982e-05
	1.736438074755339e-01

 78	7.800000000000005e-01
	-8.456317023885727e-15
	-5.675233505905490e-18
	-4.595051497366615e-14
	2.949722659867879e-06
	4.403232433388112e-04
	6.481364728839075e-05
	1.736442968817626e-01

 79	7.900000000000005e-01
	-8.460966521979182e-15
	-5.790012978312838e-18
	-4.606532387072175e-14
	3.077294003339965e-06
	4.657418077162310e-04
	6.934251997512859e-05
	1.736448180751086e-01

 80	8.000000000000005e-01
	-8.466689944110357e-15
	-5.906998208942144e-18
	-4.617724846745220e-14
	3.209023655102870e-06
	4.920977869168216e-04
	7.413019139181896e-05
	1.736453723947191e-01

 81	8.100000000000005e-01
	-8.473461377126318e-15
	-6.026232534027636e-18
	-4.628632803929231e-14
	3.344981464292642e-06
	5.193839984021898e-04
	7.918599482465173e-05
	1.736459611678259e-01

 82	8.200000000000005e-01
	-8.481255214486200e-15
	-6.147760261168366e-18
	-4.639260213342227e-14
	3.485236281125407e-06
	5.475901300458722e-04
	8.451917561023615e-05
	1.736465857035854e-01

 83	8.300000000000005e-01
	-8.490046166981597e-15
	-6.271626694562823e-18
	-4.649611052447296e-14
	3.629856015763397e-06
	5.767027290112139e-04
	9.013885975676399e-05
	1.736472472868882e-01

 84	8.400000000000005e-01
	-8.499809272608782e-15
	-6.397878160950874e-18
	-4.659689317180217e-14
	3.778907720715599e-06
	6.067052161315530e-04
	9.605402258369648e-05
	1.736479471721872e-01

 85	8.500000000000005e-01
	-8.510519905615690e-15
	-6.526562036284070e-18
	-4.669499017834052e-14
	3.932457697979490e-06
	6.375779262095143e-04
	1.022734576375298e-04
	1.736486865774304e-01

 86	8.600000000000005e-01
	-8.522153784746783e-15
	-6.657726773145198e-18
	-4.679044175100278e-14
	4.090571632019428e-06
	6.692981743002113e-04
	1.088057461435772e-04
	1.736494666781896e-01

 87	8.700000000000006e-01
	-8.534686980709471e-15
	-6.791421928940422e-18
	-4.688328816265759e-14
	4.253314749559408e-06
	7.018403476830295e-04
	1.156592272525261e-04
	1.736502886020126e-01

 88	8.800000000000006e-01
	-8.548095922887125e-15
	-6.927698194887030e-18
	-4.697356971564398e-14
	4.420752007045174e-06
	7.351760228656717e-04
	1.228419693357122e-04
	1.736511534231181e-01

 89	8.900000000000006e-01
	-8.562357405323115e-15
	-7.066607425819376e-18
	-4.706132670682214e-14
	4.592948306507771e-06
	7.692741066100485e-04
	1.303617425746807e-04
	1.736520621574738e-01

 90	9.000000000000006e-01
	-8.577448592001706e-15
	-7.208202670839832e-18
	-4.714659939414195e-14
	4.769968740439352e-06
	8.041009996295204e-04
	1.382259930787339e-04
	1.736530157583226e-01

 91	9.100000000000006e-01
	-8.593347021451041e-15
	-7.352538204838593e-18
	-4.722942796471087e-14
	4.951878866176487e-06
	8.396207812882751e-04
	1.464418187489945e-04
	1.736540151122250e-01

 92	9.200000000000006e-01
	-8.610030610694008e-15
	-7.499669560910325e-18
	-4.730985250434106e-14
	5.138745010180398e-06
	8.757954133428695e-04
	1.550159470893074e-04
	1.736550610356516e-01

 93	9.300000000000006e-01
	-8.627477658572780e-15
	-7.649653563694091e-18
	-4.738791296855242e-14
	5.330634602509722e-06
	9.125849605090333e-04
	1.639547151433334e-04
	1.736561542721713e-01

 94	9.400000000000006e-01
	-8.645666848472786e-15
	-7.802548363667213e-18
	-4.746364915500740e-14
	5.527616541704121e-06
	9.499478254188929e-04
	1.732640517138533e-04
	1.736572954902781e-01

 95	9.500000000000006e-01
	-8.664577250471252e-15
	-7.958413472422447e-18
	-4.753710067735194e-14
	5.729761590239386e-06
	9.878409953589572e-04
	1.829494619950155e-04
	1.736584852818386e-01

 96	9.600000000000006e-01
	-8.684188322936384e-15
	-8.117309798957475e-18
	-4.760830694043411e-14
	5.937142800678609e-06
	1.026220298050213e-03
	1.930160147214173e-04
	1.736597241612279e-01

 97	9.700000000000006e-01
	-8.704479913601579e-15
	-8.279299687014199e-18
	-4.767730711687199e-14
	6.149835972634573e-06
	1.065040663650840e-03
	2.034683319100815e-04
	1.736610125650952e-01

 98	9.800000000000006e-01
	-8.725432260139865e-15
	-8.444446953496540e-18
	-4.774414012494088e-14
	6.367920140675606e-06
	1.104256390129333e-03
	2.143105812429332e-04
	1.736623508527971e-01

 99	9.900000000000007e-01
	-8.747025990262503e-15
	-8.612816928006562e-18
	-4.780884460774812e-14
	6.591478093355591e-06
	1.143821409171281e-03
	2.255464711089075e-04
	1.736637393074388e-01

 100	1.000000000000001e+00
	-8.769242121366264e-15
	-8.784476493532761e-18
	-4.787145891366382e-14
	6.820596923628577e-06
	1.183689549844512e-03
	2.371792482966871e-04
	1.736651781375234e-01

 101	1.010000000000001e+00
	-8.792062059751816e-15
	-8.959494128330937e-18
	-4.793202107797495e-14
	7.055368611022721e-06
	1.223814797352345e-03
	2.492116983018177e-04
	1.736666674791434e-01

 102	1.020000000000001e+00
	-8.815467599437128e-15
	-9.137939949036774e-18
	-4.799056880572875e-14
	7.295890636096952e-06
	1.264151544349440e-03
	2.616461481859119e-04
	1.736682073987108e-01

 103	1.030000000000001e+00
	-8.839440920587616e-15
	-9.319885755050913e-18
	-4.804713945573182e-14
	7.542266627890325e-06
	1.304654832475062e-03
	2.744844719013247e-04
	1.736697978961185e-01

 104	1.040000000000001e+00
	-8.863964587584704e-15
	-9.505405074243721e-18
	-4.810177002567062e-14
	7.794607045296563e-06
	1.345280581968910e-03
	2.877280979722305e-04
	1.736714389083136e-01

 105	1.050000000000001e+00
	-8.889021546754590e-15
	-9.694573210018551e-18
	-4.815449713831846e-14
	8.053029893557877e-06
	1.385985807470012e-03
	3.013780194028725e-04
	1.736731303132345e-01

 106	1.060000000000001e+00
	-8.914595123776930e-15
	-9.887467289787465e-18
	-4.820535702879421e-14
	8.317661477373983e-06
	1.426728818353650e-03
	3.154348056660804e-04
	1.736748719339908e-01

 107	1.070000000000001e+00
	-8.940669020794207e-15
	-1.008416631490230e-17
	-4.825438553283760e-14
	8.588637192461832e-06
	1.467469402228484e-03
	3.298986166099979e-04
	1.736766635432871e-01

 108	1.080000000000001e+00
	-8.967227313240332e-15
	-1.028475121209445e-17
	-4.830161807606687e-14
	8.866102357785170e-06
	1.508168990491004e-03
	3.447692181086503e-04
	1.736785048679811e-01

 109	1.090000000000001e+00
	-8.994254446407992e-15
	-1.048930488647577e-17
	-4.834708966418247e-14
	9.150213091096692e-06
	1.548790805110725e-03
	3.600459992723286e-04
	1.736803955937417e-01

 110	1.100000000000001e+00
	-9.021735231772066e-15
	-1.069791227615312e-17
	-4.839083487408332e-14
	9.441137230904754e-06
	1.589299986092426e-03
	3.757279910269463e-04
	1.736823353697190e-01

 111	1.110000000000001e+00
	-9.049654843087339e-15
	-1.091066040851624e-17
	-4.843288784586057e-14
	9.739055308490744e-06
	1.629663699326051e-03
	3.918138858673307e-04
	1.736843238131980e-01

 112	1.120000000000001e+00
	-9.077998812276687e-15
	-1.112763845825272e-17
	-4.847328227563474e-14
	1.004416157416657e-05
	1.669851224786534e-03
	4.083020585878532e-04
	1.736863605141666e-01

 113	1.130000000000001e+00
	-9.106753025126712e-15
	-1.134893780715449e-17
	-4.851205140920212e-14
	1.035666508257630e-05
	1.709834025281161e-03
	4.251905877946594e-04
	1.736884450397421e-01

 114	1.140000000000001e+00
	-9.135903716805945e-15
	-1.157465210577508e-17
	-4.854922803645755e-14
	1.067679084251587e-05
	1.749585796157625e-03
	4.424772780068412e-04
	1.736905769384385e-01

 115	1.150000000000001e+00
	-9.165437467221281e-15
	-1.180487733700452e-17
	-4.858484448655955e-14
	1.100478103747612e-05
	1.789082496580231e-03
	4.601596821591114e-04
	1.736927557442186e-01

 116	1.160000000000001e+00
	-9.195341196226639e-15
	-1.203971188162975e-17
	-4.861893262380697e-14
	1.134089632391076e-05
	1.828302363151889e-03
	4.782351243254697e-04
	1.736949809802977e-01

 117	1.170000000000001e+00
	-9.225602158698435e-15
	-1.227925658594383e-17
	-4.865152384419367e-14
	1.168541721510145e-05
	1.867225906805580e-03
	4.967007224919507e-04
	1.736972521626896e-01

 118	1.180000000000001e+00
	-9.256207939490946e-15
	-1.252361483148348e-17
	-4.868264907261064e-14
	1.203864555944334e-05
	1.905835894009626e-03
	5.155534112164016e-04
	1.736995688034738e-01

 119	1.190000000000001e+00
	-9.287146448284510e-15
	-1.277289260696249e-17
	-4.871233876066522e-14
	1.240090612301877e-05
	1.944117313427150e-03
	5.347899640242548e-04
	1.737019304137459e-01

 120	1.200000000000001e+00
	-9.318405914339098e-15
	-1.302719858248137e-17
	-4.874062288508696e-14
	1.277254828747119e-05
	1.982057329241158e-03
	5.544070154010004e-04
	1.737043365062883e-01

 121	1.210000000000001e+00
	-9.349974881165164e-15
	-1.328664418609034e-17
	-4.876753094669075e-14
	1.315394787545501e-05
	2.019645222405070e-03
	5.744010822545143e-04
	1.737067865979201e-01

 122	1.220000000000001e+00
	-9.381842201122981e-15
	-1.355134368278904e-17
	-4.879309196986939e-14
	1.354550911732997e-05
	2.056872321104162e-03
	5.947685847331204e-04
	1.737092802115562e-01

 123	1.230000000000001e+00
	-9.413997029960881e-15
	-1.382141425604562e-17
	-4.881733450258720e-14
	1.394766677431282e-05
	2.093731921719126e-03
	6.155058662982168e-04
	1.737118168779470e-01

 124	1.240000000000001e+00
	-9.446428821304122e-15
	-1.409697609192596e-17
	-4.884028661684755e-14
	1.436088843500899e-05
	2.130219201569309e-03
	6.366092129630326e-04
	1.737143961371787e-01

 125	1.250000000000001e+00
	-9.479127321102474e-15
	-1.437815246592138e-17
	-4.886197590960855e-14
	1.478567700415888e-05
	2.166331124684382e-03
	6.580748716219689e-04
	1.737170175398563e-01

 126	1.260000000000001e+00
	-9.512082562047220e-15
	-1.466506983256939e-17
	-4.888242950412089e-14
	1.522257340455306e-05
	2.202066341807744e-03
	6.798990674069549e-04
	1.737196806480669e-01

 127	1.270000000000001e+00
	-9.545284857965977e-15
	-1.495785791796711e-17
	-4.890167405166386e-14
	1.567215951545360e-05
	2.237425085778984e-03
	7.020780200192381e-04
	1.737223850361030e-01

 128	1.280000000000001e+00
	-9.578724798203598e-15
	-1.525664981527465e-17
	-4.891973573365453e-14
	1.613506137351987e-05
	2.272409063375026e-03
	7.246079589960490e-04
	1.737251302909618e-01

 129	1.290000000000001e+00
	-9.612393241997750e-15
	-1.556158208331609e-17
	-4.893664026410803e-14
	1.661195266522787e-05
	2.307021344613716e-03
	7.474851378819915e-04
	1.737279160126790e-01

 130	1.300000000000001e+00
	-9.646281312855718e-15
	-1.587279484838739e-17
	-4.895241289242641e-14
	1.710355854313713e-05
	2.341266250441590e-03
	7.707058472847078e-04
	1.737307418144593e-01

 131	1.310000000000001e+00
	-9.680380392940954e-15
	-1.619043190937814e-17
	-4.896707840649368e-14
	1.761065980214547e-05
	2.375149239639377e-03
	7.942664268029903e-04
	1.737336073227063e-01

 132	1.320000000000001e+00
	-9.714682117474219e-15
	-1.651464084633337e-17
	-4.898066113605784e-14
	1.813409745615239e-05
	2.408676795689158e-03
	8.181632758235893e-04
	1.737365121768852e-01

 133	1.330000000000001e+00
	-9.749178369157286e-15
	-1.684557313256697e-17
	-4.899318495637876e-14
	1.867477776037785e-05
	2.441856314253154e-03
	8.423928631896834e-04
	1.737394560293148e-01

 134	1.340000000000001e+00
	-9.783861272623781e-15
	-1.718338425045939e-17
	-4.900467329212288e-14
	1.923367773005619e-05
	2.474695991821599e-03
	8.669517357502251e-04
	1.737424385448504e-01

 135	1.350000000000001e+00
	-9.818723188923287e-15
	-1.752823381106725e-17
	-4.901514912148738e-14
	1.981185121241420e-05
	2.507204715992885e-03
	8.918365258042653e-04
	1.737454594005329e-01

 136	1.360000000000001e+00
	-9.853756710043379e-15
	-1.788028567768110e-17
	-4.902463498053413e-14
	2.041043557587335e-05
	2.539391957757636e-03
	9.170439574586959e-04
	1.737485182851596e-01

 137	1.370000000000001e+00
	-9.888954653474080e-15
	-1.823970809347198e-17
	-4.903315296771966e-14
	2.103065908839130e-05
	2.571267666066762e-03
	9.425708519209561e-04
	1.737516148988411e-01

 138	1.380000000000001e+00
	-9.924310056819660e-15
	-1.860667381337375e-17
	-4.904072474860104e-14
	2.167384906592879e-05
	2.602842164875244e-03
	9.684141317506577e-04
	1.737547489525320e-01

 139	1.390000000000001e+00
	-9.959816172460681e-15
	-1.898136024035400e-17
	-4.904737156070614e-14
	2.234144088234786e-05
	2.634126052766679e-03
	9.945708240955975e-04
	1.737579201675450e-01

 140	1.400000000000001e+00
	-9.995466462270626e-15
	-1.936394956622675e-17
	-4.905311421855079e-14
	2.303498794379469e-05
	2.665130105178914e-03
	1.021038062938097e-03
	1.737611282750800e-01

 141	1.410000000000001e+00
	-1.003125459238990e-14
	-1.975462891718074e-17
	-4.905797311879003e-14
	2.375617274401808e-05
	2.695865179169604e-03
	1.047813090377615e-03
	1.737643730157351e-01

 142	1.420000000000001e+00
	-1.006717442806005e-14
	-2.015359050418290e-17
	-4.906196824548984e-14
	2.450681913234364e-05
	2.726342120579452e-03
	1.074893256974372e-03
	1.737676541390404e-01

 143	1.430000000000001e+00
	-1.010322002852080e-14
	-2.056103177844185e-17
	-4.906511917550697e-14
	2.528890594345650e-05
	2.756571673372416e-03
	1.102276021177006e-03
	1.737709714029900e-01

 144	1.440000000000001e+00
	-1.013938564197212e-14
	-2.097715559211516e-17
	-4.906744508396392e-14
	2.610458215804847e-05
	2.786564390853894e-03
	1.129958947854686e-03
	1.737743245735820e-01

 145	1.450000000000001e+00
	-1.017566570060318e-14
	-2.140217036444679e-17
	-4.906896474980912e-14
	2.695618378611750e-05
	2.816330548389765e-03
	1.157939705950664e-03
	1.737777134243685e-01

 146	1.460000000000001e+00
	-1.021205481568973e-14
	-2.183629025354275e-17
	-4.906969656144975e-14
	2.784625269068671e-05
	2.845880057170639e-03
	1.186216065270250e-03
	1.737811377359874e-01

 147	1.470000000000001e+00
	-1.024854777276162e-14
	-2.227973533398273e-17
	-4.906965852244848e-14
	2.877755759938840e-05
	2.875222378484512e-03
	1.214785892411062e-03
	1.737845972956943e-01

 148	1.480000000000001e+00
	-1.028513952684093e-14
	-2.273273178049019e-17
	-4.906886825727375e-14
	2.975311758527723e-05
	2.904366437877684e-03
	1.243647145837782e-03
	1.737880918968699e-01

 149	1.490000000000001e+00
	-1.032182519775208e-14
	-2.319551205788255e-17
	-4.906734301709459e-14
	3.077622833697629e-05
	2.933320538495626e-03
	1.272797870096976e-03
	1.737916213384930e-01

 150	1.500000000000001e+00
	-1.035860006550436e-14
	-2.366831511753300e-17
	-4.906509968561144e-14
	3.185049158248455e-05
	2.962092272801707e-03
	1.302236189160034e-03
	1.737951854245735e-01

 151	1.510000000000001e+00
	-1.039545956574706e-14
	-2.415138660058780e-17
	-4.906215478491521e-14
	3.297984808141802e-05
	2.990688431770678e-03
	1.331960298873817e-03
	1.737987839635134e-01

 152	1.520000000000001e+00
	-1.043239928529782e-14
	-2.464497904818655e-17
	-4.905852448136636e-14
	3.416861465790424e-05
	3.019114910543249e-03
	1.361968458488951e-03
	1.738024167674141e-01

 153	1.530000000000001e+00
	-1.046941495774365e-14
	-2.514935211895406e-17
	-4.905422459148794e-14