Title: ** sch_path: /home/andylithia/openmpw/project-yatsuhashi-chip1/xschem/gmid_test/nmos_test.sch
Date: Tue Jul 19 23:15:45  2022
Plotname: DC transfer characteristic
Flags: real
No. Variables: 8
No. Points: 181
Variables:
	0	v(v-sweep)	voltage
	1	@m.xm1.msky130_fd_pr__nfet_01v8[cgb]	capacitance
	2	@m.xm1.msky130_fd_pr__nfet_01v8[cgd]	capacitance
	3	@m.xm1.msky130_fd_pr__nfet_01v8[cgs]	capacitance
	4	@m.xm1.msky130_fd_pr__nfet_01v8[gds]	admittance
	5	@m.xm1.msky130_fd_pr__nfet_01v8[gm]	admittance
	6	i(@m.xm1.msky130_fd_pr__nfet_01v8[id])	current
	7	v(@m.xm1.msky130_fd_pr__nfet_01v8[vth])	voltage
Values:
 0	0.000000000000000e+00
	-1.480519382423537e-14
	-1.214678105007872e-18
	-2.999698534153065e-14
	5.758628997642720e-08
	2.142214915348932e-06
	2.872340674632917e-07
	1.716750390126853e-01

 1	1.000000000000000e-02
	-1.464874204111901e-14
	-1.242059548884504e-18
	-3.037153634831968e-14
	6.183502710224917e-08
	2.306824588751294e-06
	3.094690005476104e-07
	1.716750406222029e-01

 2	2.000000000000000e-02
	-1.449450172359182e-14
	-1.270010837303499e-18
	-3.074516690128621e-14
	6.638017338622678e-08
	2.484221753059320e-06
	3.334131347565032e-07
	1.716750423572043e-01

 3	3.000000000000000e-02
	-1.434249898731232e-14
	-1.298542466596308e-18
	-3.111775973765561e-14
	7.124073424576429e-08
	2.675445764179050e-06
	3.591994684532474e-07
	1.716750442277085e-01

 4	4.000000000000000e-02
	-1.419275892363257e-14
	-1.327665105110523e-18
	-3.148919868276501e-14
	7.643678099076235e-08
	2.881627511430546e-06
	3.869718442383134e-07
	1.716750462445885e-01

 5	5.000000000000000e-02
	-1.404530555668293e-14
	-1.357389596356516e-18
	-3.185936877758860e-14
	8.198949788790698e-08
	3.103998107947216e-06
	4.168859070612037e-07
	1.716750484196529e-01

 6	6.000000000000000e-02
	-1.390016180307181e-14
	-1.387726962243283e-18
	-3.222815640355314e-14
	8.792123035684177e-08
	3.343898408807472e-06
	4.491101533169497e-07
	1.716750507657257e-01

 7	7.000000000000001e-02
	-1.375734943426377e-14
	-1.418688406405349e-18
	-3.259544940436865e-14
	9.425553426115825e-08
	3.602789425858658e-06
	4.838270795458742e-07
	1.716750532967526e-01

 8	8.000000000000000e-02
	-1.361688904168923e-14
	-1.450285317623845e-18
	-3.296113720461458e-14
	1.010172262523370e-07
	3.882263711813763e-06
	5.212344400631453e-07
	1.716750560278980e-01

 9	9.000000000000000e-02
	-1.347880000463240e-14
	-1.482529273344619e-18
	-3.332511092482846e-14
	1.082324351197279e-07
	4.184057789656057e-06
	5.615466235876293e-07
	1.716750589756700e-01

 10	9.999999999999999e-02
	-1.334310046093500e-14
	-1.515432043296159e-18
	-3.368726349286009e-14
	1.159286540945583e-07
	4.510065706606257e-06
	6.049961597162707e-07
	1.716750621580506e-01

 11	1.100000000000000e-01
	-1.320980728054460e-14
	-1.549005593209526e-18
	-3.404748975126680e-14
	1.241347940506381e-07
	4.862353794805150e-06
	6.518353668974108e-07
	1.716750655946352e-01

 12	1.200000000000000e-01
	-1.307893604192901e-14
	-1.583262088644148e-18
	-3.440568656053727e-14
	1.328812375389719e-07
	5.243176723348389e-06
	7.023381543906208e-07
	1.716750693067938e-01

 13	1.300000000000000e-01
	-1.295050101136773e-14
	-1.618213898921821e-18
	-3.476175289795055e-14
	1.421998935878463e-07
	5.654994928275397e-06
	7.568019915572716e-07
	1.716750733178368e-01

 14	1.400000000000000e-01
	-1.282451512512558e-14
	-1.653873601171932e-18
	-3.511558995188614e-14
	1.521242531940674e-07
	6.100493508439675e-06
	8.155500586988468e-07
	1.716750776532197e-01

 15	1.500000000000000e-01
	-1.270098997450194e-14
	-1.690253984491286e-18
	-3.546710121142443e-14
	1.626894454250111e-07
	6.582602675750625e-06
	8.789335945429975e-07
	1.716750823407397e-01

 16	1.600000000000000e-01
	-1.257993579374422e-14
	-1.727368054221088e-18
	-3.581619255108526e-14
	1.739322940447381e-07
	7.104519847924524e-06
	9.473344563605347e-07
	1.716750874107822e-01

 17	1.700000000000000e-01
	-1.246136145080264e-14
	-1.765229036344925e-18
	-3.616277231057605e-14
	1.858913745708910e-07
	7.669733470471837e-06
	1.021167909572062e-06
	1.716750928965616e-01

 18	1.800000000000000e-01
	-1.234527444089803e-14
	-1.803850382010295e-18
	-3.650675136943237e-14
	1.986070716620824e-07
	8.282048651998494e-06
	1.100885664557179e-06
	1.716750988344146e-01

 19	1.900000000000000e-01
	-1.223168088286515e-14
	-1.843245772177543e-18
	-3.684804321645488e-14
	2.121216367283544e-07
	8.945614692843846e-06
	1.186979179201137e-06
	1.716751052640979e-01

 20	2.000000000000000e-01
	-1.212058551822648e-14
	-1.883429122398906e-18
	-3.718656401386183e-14
	2.264792456494864e-07
	9.664954581411168e-06
	1.279983246486021e-06
	1.716751122291372e-01

 21	2.100000000000000e-01
	-1.201199171294557e-14
	-1.924414587731834e-18
	-3.752223265609326e-14
	2.417260564780750e-07
	1.044499652508023e-05
	1.380479887141390e-06
	1.716751197771955e-01

 22	2.200000000000001e-01
	-1.190590146179993e-14
	-1.966216567789426e-18
	-3.785497082322300e-14
	2.579102669956984e-07
	1.129110757310095e-05
	1.489102567991520e-06
	1.716751279604740e-01

 23	2.300000000000001e-01
	-1.180231539530921e-14
	-2.008849711931589e-18
	-3.818470302894677e-14
	2.750821719815451e-07
	1.220912937714014e-05
	1.606540767152852e-06
	1.716751368361707e-01

 24	2.400000000000001e-01
	-1.170123278914642e-14
	-2.052328924601220e-18
	-3.851135666313699e-14
	2.932942200435207e-07
	1.320541612096816e-05
	1.733544907622781e-06
	1.716751464669641e-01

 25	2.500000000000001e-01
	-1.160265157595510e-14
	-2.096669370808115e-18
	-3.883486202896731e-14
	3.126010698517296e-07
	1.428687463389416e-05
	1.870931681032219e-06
	1.716751569215443e-01

 26	2.600000000000001e-01
	-1.150656835948983e-14
	-2.141886481764885e-18
	-3.915515237462716e-14
	3.330596456037536e-07
	1.546100668277206e-05
	2.019589783382989e-06
	1.716751682752092e-01

 27	2.700000000000001e-01
	-1.141297843099232e-14
	-2.187995960679127e-18
	-3.947216391966393e-14
	3.547291915400503e-07
	1.673595341448570e-05
	2.180486084426392e-06
	1.716751806104938e-01

 28	2.800000000000001e-01
	-1.132187578771091e-14
	-2.235013788704742e-18
	-3.978583587600289e-14
	3.776713253159917e-07
	1.812054189457001e-05
	2.354672251927928e-06
	1.716751940178692e-01

 29	2.900000000000001e-01
	-1.123325315346731e-14
	-2.282956231057470e-18
	-4.009611046371153e-14
	4.019500900248360e-07
	1.962433365785287e-05
	2.543291851372342e-06
	1.716752085965028e-01

 30	3.000000000000001e-01
	-1.114710200117117e-14
	-2.331839843298496e-18
	-4.040293292158798e-14
	4.276320046530258e-07
	2.125767515354795e-05
	2.747587940655873e-06
	1.716752244550808e-01

 31	3.100000000000001e-01
	-1.106341257717888e-14
	-2.381681477789596e-18
	-4.070625151266724e-14
	4.547861127357173e-07
	2.303174992995335e-05
	2.968911177951087e-06
	1.716752417127068e-01

 32	3.200000000000001e-01
	-1.098217392739184e-14
	-2.432498290325513e-18
	-4.100601752475092e-14
	4.834840289665367e-07
	2.495863236273893e-05
	3.208728459176467e-06
	1.716752604998671e-01

 33	3.300000000000001e-01
	-1.090337392498601e-14
	-2.484307746946620e-18
	-4.130218526607807e-14
	5.137999835009611e-07
	2.705134268568232e-05
	3.468632099316602e-06
	1.716752809594922e-01

 34	3.400000000000001e-01
	-1.082699929966377e-14
	-2.537127630937478e-18
	-4.159471205626632e-14
	5.458108636780654e-07
	2.932390303368402e-05
	3.750349569183225e-06
	1.716753032480858e-01

 35	3.500000000000001e-01
	-1.075303566831672e-14
	-2.590976050015334e-18
	-4.188355821266242e-14
	5.795962528699621e-07
	3.179139415502996e-05
	4.055753796039564e-06
	1.716753275369579e-01

 36	3.600000000000002e-01
	-1.068146756698898e-14
	-2.645871443713628e-18
	-4.216868703225037e-14
	6.152384661530803e-07
	3.447001239337325e-05
	4.386874032797167e-06
	1.716753540135425e-01

 37	3.700000000000002e-01
	-1.061227848402812e-14
	-2.701832590965155e-18
	-4.245006476927498e-14
	6.528225824797980e-07
	3.737712648004055e-05
	4.745907296197071e-06
	1.716753828828209e-01

 38	3.800000000000002e-01
	-1.054545089431278e-14
	-2.758878617890201e-18
	-4.272766060874474e-14
	6.924364730138916e-07
	4.053133361442318e-05
	5.135230369476713e-06
	1.716754143688475e-01

 39	3.900000000000002e-01
	-1.048096629444502e-14
	-2.817029005794785e-18
	-4.300144663598704e-14
	7.341708252780343e-07
	4.395251424488609e-05
	5.557412359470532e-06
	1.716754487163794e-01

 40	4.000000000000002e-01
	-1.041880523879727e-14
	-2.876303599384140e-18
	-4.327139780243251e-14
	7.781191627473923e-07
	4.766188489546044e-05
	6.015227791876311e-06
	1.716754861926139e-01

 41	4.100000000000002e-01
	-1.035894737630505e-14
	-2.936722615196815e-18
	-4.353749188781119e-14
	8.243778595097435e-07
	5.168204831533331e-05
	6.511670221523223e-06
	1.716755270890542e-01

 42	4.200000000000002e-01
	-1.030137148789647e-14
	-2.998306650265430e-18
	-4.379970945894947e-14
	8.730461496003753e-07
	5.603704015978153e-05
	7.049966326900899e-06
	1.716755717234643e-01

 43	4.300000000000002e-01
	-1.024605552445461e-14
	-3.061076691009801e-18
	-4.405803382535622e-14
	9.242261306091362e-07
	6.075237134371287e-05
	7.633590449945484e-06
	1.716756204419681e-01

 44	4.400000000000002e-01
	-1.019297664520765e-14
	-3.125054122367390e-18
	-4.431245099179305e-14
	9.780227611485148e-07
	6.585506514372005e-05
	8.266279533157277e-06
	1.716756736212327e-01

 45	4.500000000000002e-01
	-1.014211125644679e-14
	-3.190260737168695e-18
	-4.456294960802334e-14
	1.034543851765119e-06
	7.137368806281256e-05
	8.952048396559180e-06
	1.716757316707994e-01

 46	4.600000000000002e-01
	-1.009343505047330e-14
	-3.256718745762934e-18
	-4.480952091593612e-14
	1.093900048874031e-06
	7.733837341542657e-05
	9.695205286854567e-06
	1.716757950354877e-01

 47	4.700000000000003e-01
	-1.004692304467944e-14
	-3.324450785900244e-18
	-4.505215869424199e-14
	1.156204811295471e-06
	8.378083654052522e-05
	1.050036762045127e-05
	1.716758641979319e-01

 48	4.800000000000003e-01
	-1.000254962067179e-14
	-3.393479932878034e-18
	-4.529085920093636e-14
	1.221574378977822e-06
	9.073438050952129e-05
	1.137247783087702e-05
	1.716759396812070e-01

 49	4.900000000000003e-01
	-9.960288563347548e-15
	-3.463829709957212e-18
	-4.552562111372639e-14
	1.290127733500333e-06
	9.823389116527450e-05
	1.231681921960884e-05
	1.716760220515235e-01

 50	5.000000000000002e-01
	-9.920113099840062e-15
	-3.535524099056369e-18
	-4.575644546861355e-14
	1.361986549963323e-06
	1.063158203105856e-04
	1.333903169759063e-05
	1.716761119210303e-01

 51	5.100000000000002e-01
	-9.881995938251103e-15
	-3.608587551730110e-18
	-4.598333559682427e-14
	1.437275139894607e-06
	1.150181558615683e-04
	1.444512729286547e-05
	1.716762099506509e-01

 52	5.200000000000002e-01
	-9.845909306093463e-15
	-3.683045000440250e-18
	-4.620629706027613e-14
	1.516120384828617e-06
	1.243803777950892e-04
	1.564150528795017e-05
	1.716763168529636e-01

 53	5.300000000000002e-01
	-9.811824988370370e-15
	-3.758921870126521e-18
	-4.642533758576367e-14
	1.598651660249392e-06
	1.344433987522271e-04
	1.693496683901248e-05
	1.716764333951210e-01

 54	5.400000000000003e-01
	-9.779714365221702e-15
	-3.836244090085142e-18
	-4.664046699804629e-14
	1.685000749632541e-06
	1.452494882134510e-04
	1.833272891778406e-05
	1.716765604017413e-01

 55	5.500000000000003e-01
	-9.749548449072489e-15
	-3.915038106164197e-18
	-4.685169715201289e-14
	1.775301748372776e-06
	1.568421792377112e-04
	1.984243740665727e-05
	1.716766987577794e-01

 56	5.600000000000003e-01
	-9.721297921222212e-15
	-3.995330893282805e-18
	-4.705904186409561e-14
	1.869690957445517e-06
	1.692661568586110e-04
	2.147217916782655e-05
	1.716768494113247e-01

 57	5.700000000000003e-01
	-9.694933167817854e-15
	-4.077149968284589e-18
	-4.726251684309865e-14
	1.968306766722128e-06
	1.825671273575337e-04
	2.323049289888207e-05
	1.716770133763173e-01

 58	5.800000000000003e-01
	-9.670424315157818e-15
	-4.160523403132991e-18
	-4.746213962060341e-14
	2.071289527940061e-06
	1.967916677870900e-04
	2.512637858022107e-05
	1.716771917350906e-01

 59	5.900000000000003e-01
	-9.647741264277874e-15
	-4.245479838459131e-18
	-4.765792948110422e-14
	2.178781417420851e-06
	2.119870552989652e-04
	2.716930531426533e-05
	1.716773856407698e-01

 60	6.000000000000003e-01
	-9.626853724774581e-15
	-4.332048497471068e-18
	-4.784990739202402e-14
	2.290926288731692e-06
	2.282010760383281e-04
	2.936921735305804e-05
	1.716775963194150e-01

 61	6.100000000000003e-01
	-9.607731247825104e-15
	-4.420259200234525e-18
	-4.803809593375240e-14
	2.407869515598826e-06
	2.454818136016691e-04
	3.173653810960549e-05
	1.716778250719009e-01

 62	6.200000000000003e-01
	-9.590343258366804e-15
	-4.510142378336686e-18
	-4.822251922984209e-14
	2.529757825504059e-06
	2.638774173151670e-04
	3.428217194961096e-05
	1.716780732754682e-01

 63	6.300000000000003e-01
	-9.574659086403725e-15
	-4.601729089941510e-18
	-4.840320287749314e-14
	2.656739124527728e-06
	2.834358508743563e-04
	3.701750356425290e-05
	1.716783423848927e-01

 64	6.400000000000003e-01
	-9.560647997410563e-15
	-4.695051035250628e-18
	-4.858017387844823e-14
	2.788962314142523e-06
	3.042046221903507e-04
	3.995439473161618e-05
	1.716786339332255e-01

 65	6.500000000000004e-01
	-9.548279221808989e-15
	-4.790140572378271e-18
	-4.875346057041355e-14
	2.926577100810677e-06
	3.262304956095479e-04
	4.310517828447775e-05
	1.716789495320572e-01

 66	6.600000000000004e-01
	-9.537521983493629e-15
	-4.887030733655137e-18
	-4.892309255911680e-14
	3.069733799391608e-06
	3.495591880083754e-04
	4.648264911553919e-05
	1.716792908712224e-01

 67	6.700000000000004e-01
	-9.528345527390112e-15
	-4.985755242370902e-18
	-4.908910065110191e-14
	3.218583131525344e-06
	3.742350506069922e-04
	5.010005206796937e-05
	1.716796597179392e-01

 68	6.800000000000004e-01
	-9.520719146029365e-15
	-5.086348529970113e-18
	-4.925151678735793e-14
	3.373276020318743e-06
	4.003007386902894e-04
	5.397106657935764e-05
	1.716800579153049e-01

 69	6.900000000000004e-01
	-9.514612205126054e-15
	-5.188845753712752e-18
	-4.941037397787034e-14
	3.533963382821819e-06
	4.277968717642280e-04
	5.810978797081856e-05
	1.716804873801102e-01

 70	7.000000000000004e-01
	-9.509994168152880e-15
	-5.293282814815681e-18
	-4.956570623717615e-14
	3.700795921940987e-06
	4.567616870037399e-04
	6.253070530000316e-05
	1.716809500999401e-01

 71	7.100000000000004e-01
	-9.506834619904170e-15
	-5.399696377084764e-18
	-4.971754852099937e-14
	3.873923919588898e-06
	4.872306891572438e-04
	6.724867572695736e-05
	1.716814481295401e-01

 72	7.200000000000004e-01
	-9.505103289045634e-15
	-5.508123886057408e-18
	-4.986593666403566e-14
	4.053497033016545e-06
	5.192363003547473e-04
	7.227889537493007e-05
	1.716819835863968e-01

 73	7.300000000000004e-01
	-9.504770069649965e-15
	-5.618603588665002e-18
	-5.001090731894864e-14
	4.239664096407806e-06
	5.528075135134281e-04
	7.763686670403809e-05
	1.716825586455510e-01

 74	7.400000000000004e-01
	-9.505805041720240e-15
	-5.731174553433956e-18
	-5.015249789663502e-14
	4.432572929936753e-06
	5.879695532387294e-04
	8.333836245375205e-05
	1.716831755336211e-01

 75	7.500000000000004e-01
	-9.508178490705437e-15
	-5.845876691240739e-18
	-5.029074650780924e-14
	4.632370158592112e-06
	6.247435482730396e-04
	8.939938625003089e-05
	1.716838365220542e-01

 76	7.600000000000005e-01
	-9.511860926014921e-15
	-5.962750776633964e-18
	-5.042569190595290e-14
	4.839201043156295e-06
	6.631462196408824e-04
	9.583613001403381e-05
	1.716845439196272e-01

 77	7.700000000000005e-01
	-9.516823098540583e-15
	-6.081838469743711e-18
	-5.055737343166837e-14
	5.053209325787857e-06
	7.031895886733254e-04
	1.026649283510994e-04
	1.716853000642250e-01

 78	7.800000000000005e-01
	-9.523036017197618e-15
	-6.203182338792942e-18
	-5.068583095847089e-14
	5.274537092691862e-06
	7.448807090599380e-04
	1.099022101404262e-04
	1.716861073139535e-01

 79	7.900000000000005e-01
	-9.530470964496534e-15
	-6.326825883227960e-18
	-5.081110484004887e-14
	5.503324656371720e-06
	7.882214269704185e-04
	1.175644475869216e-04
	1.716869680376304e-01

 80	8.000000000000005e-01
	-9.539099511161199e-15
	-6.452813557485797e-18
	-5.093323585901575e-14
	5.739710459936272e-06
	8.332081731077795e-04
	1.256681030362773e-04
	1.716878846047582e-01

 81	8.100000000000005e-01
	-9.548893529808423e-15
	-6.581190795418902e-18
	-5.105226517717470e-14
	5.983831005886626e-06
	8.798317903000793e-04
	1.342295738917227e-04
	1.716888593750193e-01

 82	8.200000000000005e-01
	-9.559825207707416e-15
	-6.712004035389584e-18
	-5.116823428731020e-14
	6.235820811727417e-06
	9.280773999094460e-04
	1.432651360053704e-04
	1.716898946874508e-01

 83	8.300000000000005e-01
	-9.571867058637421e-15
	-6.845300746061888e-18
	-5.128118496651869e-14
	6.495812394638244e-06
	9.779243099386041e-04
	1.527908859478881e-04
	1.716909928493296e-01

 84	8.400000000000005e-01
	-9.584991933864444e-15
	-6.981129452900607e-18
	-5.139115923108485e-14
	6.763936287301307e-06
	1.029345967250973e-03
	1.628226825866692e-04
	1.716921561249752e-01

 85	8.500000000000005e-01
	-9.599173032257332e-15
	-7.119539765405894e-18
	-5.149819929290865e-14
	7.040321086816865e-06
	1.082309955798154e-03
	1.733760884242506e-04
	1.716933867244909e-01

 86	8.600000000000005e-01
	-9.614383909567033e-15
	-7.260582405098167e-18
	-5.160234751748117e-14
	7.325093538444489e-06
	1.136778042175583e-03
	1.844663111646695e-04
	1.716946867926695e-01

 87	8.700000000000006e-01
	-9.630598486890541e-15
	-7.404309234276750e-18
	-5.170364638340859e-14
	7.618378655696197e-06
	1.192706269214693e-03
	1.961081459855788e-04
	1.716960583981099e-01

 88	8.800000000000006e-01
	-9.647791058344634e-15
	-7.550773285574403e-18
	-5.180213844347680e-14
	7.920299878073754e-06
	1.250045097678365e-03
	2.083159189976745e-04
	1.716975035227204e-01

 89	8.900000000000006e-01
	-9.665936297973682e-15
	-7.700028792327994e-18
	-5.189786628724769e-14
	8.230979267494679e-06
	1.308739595468709e-03
	2.211034323702361e-04
	1.716990240517349e-01

 90	9.000000000000006e-01
	-9.685009265915965e-15
	-7.852131219791742e-18
	-5.199087250517684e-14
	8.550537744195091e-06
	1.368729673095626e-03
	2.344839115922598e-04
	1.717006217643232e-01

 91	9.100000000000006e-01
	-9.704985413854711e-15
	-8.007137297214196e-18
	-5.208119965423747e-14
	8.879095362632813e-06
	1.429950363503818e-03
	2.484699553226675e-04
	1.717022983249603e-01

 92	9.200000000000006e-01
	-9.725840589778885e-15
	-8.165105050806479e-18
	-5.216889022503482e-14
	9.216771627652016e-06
	1.492332143729560e-03
	2.630734882607841e-04
	1.717040552756080e-01

 93	9.300000000000006e-01
	-9.747551042080032e-15
	-8.326093837625292e-18
	-5.225398661039281e-14
	9.563685850912953e-06
	1.555801295268792e-03
	2.783057174398446e-04
	1.717058940288423e-01

 94	9.400000000000006e-01
	-9.770093423010765e-15
	-8.490164380401469e-18
	-5.233653107539253e-14
	9.919957547340817e-06
	1.620280299497289e-03
	2.941770923121417e-04
	1.717078158619817e-01

 95	9.500000000000006e-01
	-9.793444791530600e-15
	-8.657378803340401e-18
	-5.241656572884062e-14
	1.028570687111911e-05
	1.685688264004054e-03
	3.106972689553483e-04
	1.717098219122643e-01

 96	9.600000000000006e-01
	-9.817582615565459e-15
	-8.827800668923556e-18
	-5.249413249614368e-14
	1.066105509053801e-05
	1.751941375288271e-03
	3.278750786857690e-04
	1.717119131731547e-01

 97	9.700000000000006e-01
	-9.842484773705707e-15
	-9.001495015744507e-18
	-5.256927309356363e-14
	1.104612510082460e-05
	1.818953372938512e-03
	3.457185013170334e-04
	1.717140904917835e-01

 98	9.800000000000006e-01
	-9.868129556368042e-15
	-9.178528397411180e-18
	-5.264202900382801e-14
	1.144104197392379e-05
	1.886636040164511e-03
	3.642346432524562e-04
	1.717163545675282e-01

 99	9.900000000000007e-01
	-9.894495666446367e-15
	-9.358968922549024e-18
	-5.271244145306630e-14
	1.184593354407422e-05
	1.954899705391618e-03
	3.834297205470257e-04
	1.717187059517436e-01

 100	1.000000000000001e+00
	-9.921562219476004e-15
	-9.542886295939422e-18
	-5.278055138904474e-14
	1.226093102793518e-05
	2.023653749557553e-03
	4.033090470215875e-04
	1.717211450486184e-01

 101	1.010000000000001e+00
	-9.949308743334679e-15
	-9.730351860834004e-18
	-5.284639946066896e-14
	1.268616967797036e-05
	2.092807113769991e-03
	4.238770274581828e-04
	1.717236721170941e-01

 102	1.020000000000001e+00
	-9.977715177504609e-15
	-9.921438642481695e-18
	-5.291002599872395e-14
	1.312178946778165e-05
	2.162268802088890e-03
	4.451371558524641e-04
	1.717262872738241e-01

 103	1.030000000000001e+00
	-1.000676187191781e-14
	-1.011622139291101e-17
	-5.297147099782010e-14
	1.356793580811622e-05
	2.231948374385503e-03
	4.670920186476583e-04
	1.717289904970897e-01

 104	1.040000000000001e+00
	-1.003642958540776e-14
	-1.031477663700956e-17
	-5.303077409951263e-14
	1.402476029233897e-05
	2.301756424493902e-03
	4.897433028253220e-04
	1.717317816316032e-01

 105	1.050000000000001e+00
	-1.006669948378784e-14
	-1.051718271994676e-17
	-5.308797457656304e-14
	1.449242147027265e-05
	2.371605039203201e-03
	5.130918086819915e-04
	1.717346603940819e-01

 106	1.060000000000001e+00
	-1.009755313757961e-14
	-1.072351985598644e-17
	-5.314311131830770e-14
	1.497108564945456e-05
	2.441408234029580e-03
	5.371374670781835e-04
	1.717376263795540e-01

 107	1.070000000000001e+00
	-1.012897251940979e-14
	-1.093387017873453e-17
	-5.319622281710150e-14
	1.546092772304618e-05
	2.511082362148209e-03
	5.618793609079533e-04
	1.717406790682440e-01

 108	1.080000000000001e+00
	-1.016094000109644e-14
	-1.114831779288065e-17
	-5.324734715580241e-14
	1.596213202385284e-05
	2.580546493343897e-03
	5.873157505034434e-04
	1.717438178329466e-01

 109	1.090000000000001e+00
	-1.019343835044438e-14
	-1.136694882747359e-17
	-5.329652199626290e-14
	1.647489320416344e-05
	2.649722760345474e-03
	6.134441026600216e-04
	1.717470419468216e-01

 110	1.100000000000001e+00
	-1.022645072776713e-14
	-1.158985149079990e-17
	-5.334378456879439e-14
	1.699941714140776e-05
	2.718536670432408e-03
	6.402611229441136e-04
	1.717503505914410e-01

 111	1.110000000000001e+00
	-1.025996068215499e-14
	-1.181711612690559e-17
	-5.338917166257087e-14
	1.753592186993913e-05
	2.786917380730004e-03
	6.677627909273484e-04
	1.717537428650590e-01

 112	1.120000000000001e+00
	-1.029395214750551e-14
	-1.204883527383484e-17
	-5.343271961693753e-14
	1.808463853959132e-05
	2.854797936134505e-03
	6.959443979777298e-04
	1.717572177909406e-01

 113	1.130000000000001e+00
	-1.032840943833433e-14
	-1.228510372363556e-17
	-5.347446431359070e-14
	1.864581240201790e-05
	2.922115469319056e-03
	7.248005872305383e-04
	1.717607743257100e-01

 114	1.140000000000001e+00
	-1.036331724538244e-14
	-1.252601858419670e-17
	-5.351444116959538e-14
	1.921970382620522e-05
	2.988811362759827e-03
	7.543253953588559e-04
	1.717644113676245e-01

 115	1.150000000000001e+00
	-1.039866063103491e-14
	-1.277167934298287e-17
	-5.355268513120798e-14
	1.980658934495189e-05
	3.054831373180173e-03
	7.845122957655047e-04
	1.717681277646520e-01

 116	1.160000000000001e+00
	-1.043442502456816e-14
	-1.302218793273376e-17
	-5.358923066846960e-14
	2.040676273452205e-05
	3.120125719232409e-03
	8.153542428243116e-04
	1.717719223223662e-01

 117	1.170000000000001e+00
	-1.047059621723832e-14
	-1.327764879919171e-17
	-5.362411177053944e-14
	2.102053613011642e-05
	3.184649133619543e-03
	8.468437168090650e-04
	1.717757938115121e-01

 118	1.180000000000001e+00
	-1.050716035722701e-14
	-1.353816897093439e-17
	-5.365736194173426e-14
	2.164824118024914e-05
	3.248360881195718e-03
	8.789727691622333e-04
	1.717797409752645e-01

 119	1.190000000000001e+00
	-1.054410394445665e-14
	-1.380385813138029e-17
	-5.368901419824385e-14
	2.229023024358311e-05
	3.311224744875278e-03
	9.117330677726204e-04
	1.717837625360912e-01

 120	1.200000000000001e+00
	-1.058141382528942e-14
	-1.407482869304723e-17
	-5.371910106549062e-14
	2.294687763225167e-05
	3.373208981422599e-03
	9.451159419507293e-04
	1.717878572022038e-01

 121	1.210000000000001e+00
	-1.061907718712219e-14
	-1.435119587413570e-17
	-5.374765457610338e-14
	2.361858090618569e-05
	3.434286249389005e-03
	9.791124268123935e-04
	1.717920236735840e-01

 122	1.220000000000001e+00
	-1.065708155288941e-14
	-1.463307777752287e-17
	-5.377470626847538e-14
	2.430576222347663e-05
	3.494433511610621e-03
	1.013713306804858e-03
	1.717962606475336e-01

 123	1.230000000000001e+00
	-1.069541477548658e-14
	-1.492059547224750e-17
	-5.380028718587700e-14
	2.500886975232834e-05
	3.553631914781496e-03
	1.048909158134008e-03
	1.718005668237935e-01

 124	1.240000000000001e+00
	-1.073406503212402e-14
	-1.521387307757022e-17
	-5.382442787609593e-14
	2.572837915070547e-05
	3.611866648675821e-03
	1.084690389877232e-03
	1.718049409091693e-01

 125	1.250000000000001e+00
	-1.077302081862315e-14
	-1.551303784970056e-17
	-5.384715839157566e-14
	2.646479512035325e-05
	3.669126787610154e-03
	1.121047283592034e-03
	1.718093816217159e-01

 126	1.260000000000001e+00
	-1.081227094366414e-14
	-1.581822027127899e-17
	-5.386850829002677e-14
	2.721865304246978e-05
	3.725405116719155e-03
	1.157970031256532e-03
	1.718138876944522e-01

 127	1.270000000000001e+00
	-1.085180452299617e-14
	-1.612955414371170e-17
	-5.388850663548346e-14
	2.799052070294240e-05
	3.780697945566564e-03
	1.195448771403362e-03
	1.718184578786646e-01

 128	1.280000000000001e+00
	-1.089161097361795e-14
	-1.644717668245366e-17
	-5.390718199978120e-14
	2.878100011573663e-05
	3.835004911534537e-03
	1.233473623333500e-03
	1.718230909467589e-01

 129	1.290000000000001e+00
	-1.093168000793866e-14
	-1.677122861534190e-17
	-5.392456246442990e-14
	2.959072945373698e-05
	3.888328775329312e-03
	1.272034719320197e-03
	1.718277856947320e-01

 130	1.300000000000001e+00
	-1.097200162792678e-14
	-1.710185428408494e-17
	-5.394067562285972e-14
	3.042038509710993e-05
	3.940675210817635e-03
	1.311122234736160e-03
	1.718325409442595e-01

 131	1.310000000000001e+00
	-1.101256611925542e-14
	-1.743920174901713e-17
	-5.395554858301535e-14
	3.127068381008041e-05
	3.992052591267254e-03
	1.350726416058434e-03
	1.718373555444286e-01

 132	1.320000000000001e+00
	-1.105336404545058e-14
	-1.778342289722718e-17
	-5.396920797027792e-14
	3.214238505790152e-05
	4.042471773911747e-03
	1.390837606725324e-03
	1.718422283731459e-01

 133	1.330000000000001e+00
	-1.109438624205041e-14
	-1.813467355418710e-17
	-5.398167993069183e-14
	3.303629347676442e-05
	4.091945884598218e-03
	1.431446270838243e-03
	1.718471583382320e-01

 134	1.340000000000001e+00
	-1.113562381078161e-14
	-1.849311359898830e-17
	-5.399299013447713e-14
	3.395326151043281e-05
	4.140490104108331e-03
	1.472543014717717e-03
	1.718521443782636e-01

 135	1.350000000000001e+00
	-1.117706811375877e-14
	-1.885890708332626e-17
	-5.400316377980646e-14
	3.489419222853713e-05
	4.188121457574290e-03
	1.514118606338201e-03
	1.718571854631456e-01

 136	1.360000000000001e+00
	-1.121871076771265e-14
	-1.923222235435344e-17
	-5.401222559682856e-14
	3.586004234270135e-05
	4.234858608240960e-03
	1.556163992679382e-03
	1.718622805944569e-01

 137	1.370000000000001e+00
	-1.126054363825322e-14
	-1.961323218154213e-17
	-5.402019985191913e-14
	3.685182543803933e-05
	4.280721656658282e-03
	1.598670315043292e-03
	1.718674288056175e-01

 138	1.380000000000001e+00
	-1.130255883417149e-14
	-2.000211388769473e-17
	-5.402711035214267e-14
	3.787061543905623e-05
	4.325731946226328e-03
	1.641628922396671e-03
	1.718726291618589e-01

 139	1.390000000000001e+00
	-1.134474870178510e-14
	-2.039904948424991e-17
	-5.403298044990743e-14
	3.891755033062908e-05
	4.369911875858603e-03
	1.685031382806312e-03
	1.718778807600407e-01

 140	1.400000000000001e+00
	-1.138710581933241e-14
	-2.080422581103617e-17
	-5.403783304779809e-14
	3.999383615654206e-05
	4.413284720380338e-03
	1.728869493041864e-03
	1.718831827283510e-01

 141	1.410000000000001e+00
	-1.142962299141794e-14
	-2.121783468062904e-17
	-5.404169060357073e-14
	4.110075132004671e-05
	4.455874459139421e-03
	1.773135286426276e-03
	1.718885342258714e-01

 142	1.420000000000001e+00
	-1.147229324351322e-14
	-2.164007302747903e-17
	-5.404457513529588e-14
	4.223965121309645e-05
	4.497705613175955e-03
	1.817821039017859e-03
	1.718939344420504e-01

 143	1.430000000000001e+00
	-1.151510981651630e-14
	-2.207114306198160e-17
	-5.404650822663477e-14
	4.341197320331930e-05
	4.538803091176085e-03
	1.862919274210872e-03
	1.718993825960943e-01

 144	1.440000000000001e+00
	-1.155806616137275e-14
	-2.251125242965583e-17
	-5.404751103223637e-14
	4.461924201045142e-05
	4.579192044324693e-03
	1.908422765843165e-03
	1.719048779363020e-01

 145	1.450000000000001e+00
	-1.160115593376025e-14
	-2.296061437563515e-17
	-5.404760428324270e-14
	4.586307550689348e-05
	4.618897730071687e-03
	1.954324539900172e-03
	1.719104197393173e-01

 146	1.460000000000001e+00
	-1.164437298883976e-14
	-2.341944791464185e-17
	-5.404680829288955e-14
	4.714519098027999e-05
	4.657945384734768e-03
	2.000617874903889e-03
	1.719160073093594e-01

 147	1.470000000000001e+00
	-1.168771137607476e-14
	-2.388797800665799e-17
	-5.404514296219231e-14
	4.846741189954116e-05
	4.696360104781887e-03
	2.047296301074612e-03
	1.719216399774061e-01

 148	1.480000000000001e+00
	-1.173116533412055e-14
	-2.436643573849183e-17
	-5.404262778570541e-14
	4.983167522987939e-05
	4.734166736564440e-03
	2.094353598351031e-03
	1.719273171003483e-01

 149	1.490000000000001e+00
	-1.177472928578513e-14
	-2.485505851145847e-17
	-5.403928185734540e-14
	5.124003934645057e-05
	4.771389774209672e-03
	2.141783793351706e-03
	1.719330380601331e-01

 150	1.500000000000001e+00
	-1.181839783306257e-14
	-2.535409023539860e-17
	-5.403512387626788e-14
	5.269469260136937e-05
	4.808053265326962e-03
	2.189581155357951e-03
	1.719388022628671e-01

 151	1.510000000000001e+00
	-1.186216575224064e-14
	-2.586378152926238e-17
	-5.403017215278966e-14
	5.419796260397478e-05
	4.844180724134494e-03
	2.237740191393940e-03
	1.719446091379376e-01

 152	1.520000000000001e+00
	-1.190602798908266e-14
	-2.638438992850812e-17
	-5.402444461434675e-14
	5.575232628020856e-05
	4.879795051575134e-03
	2.286255640476483e-03
	1.719504581370880e-01

 153	1.530000000000001e+00
	-1.194997965408497e-14
	-2.691618009955850e-17
	-5.401795881148074e-14