Title: ** sch_path: /home/andylithia/openmpw/project-yatsuhashi-chip1/xschem/gmid_test/nmos_test.sch
Date: Sun Jul 17 22:51:45  2022
Plotname: DC transfer characteristic
Flags: real
No. Variables: 8
No. Points: 181
Variables:
	0	v(v-sweep)	voltage
	1	@m.xm1.msky130_fd_pr__nfet_01v8[cgb]	capacitance
	2	@m.xm1.msky130_fd_pr__nfet_01v8[cgd]	capacitance
	3	@m.xm1.msky130_fd_pr__nfet_01v8[cgs]	capacitance
	4	@m.xm1.msky130_fd_pr__nfet_01v8[gds]	admittance
	5	@m.xm1.msky130_fd_pr__nfet_01v8[gm]	admittance
	6	i(@m.xm1.msky130_fd_pr__nfet_01v8[id])	current
	7	v(@m.xm1.msky130_fd_pr__nfet_01v8[vth])	voltage
Values:
 0	0.000000000000000e+00
	-8.959608848827765e-15
	-3.722879252928059e-18
	-1.595598508978163e-14
	1.919111276311677e-08
	6.547471122064683e-07
	7.909485367912552e-08
	2.101743542958016e-01

 1	1.000000000000000e-02
	-8.859129266454014e-15
	-3.827173755498258e-18
	-1.619143365334360e-14
	2.077539359909644e-08
	7.109404945087801e-07
	8.591939692809658e-08
	2.101743551067434e-01

 2	2.000000000000000e-02
	-8.759833236588016e-15
	-3.934435238710875e-18
	-1.642676388432690e-14
	2.248404897597145e-08
	7.720139155032264e-07
	9.332992166761445e-08
	2.101743559873204e-01

 3	3.000000000000000e-02
	-8.661744217795853e-15
	-4.044750588264246e-18
	-1.666188653849036e-14
	2.432612267318003e-08
	8.384103997245903e-07
	1.013774088627260e-07
	2.101743569435906e-01

 4	4.000000000000000e-02
	-8.564885053448802e-15
	-4.158209403133286e-18
	-1.689671268707016e-14
	2.631124013291171e-08
	9.106165204164238e-07
	1.101174837909151e-07
	2.101743579821637e-01

 5	5.000000000000000e-02
	-8.469277927170851e-15
	-4.274904089509580e-18
	-1.713115383869991e-14
	2.844963849243890e-08
	9.891670335577110e-07
	1.196108742998347e-07
	2.101743591102602e-01

 6	6.000000000000000e-02
	-8.374944320228908e-15
	-4.394929958385690e-18
	-1.736512206005166e-14
	3.075219752128980e-08
	1.074650011833880e-06
	1.299239178659933e-07
	2.101743603357606e-01

 7	7.000000000000001e-02
	-8.281904970966474e-15
	-4.518385326940273e-18
	-1.759853009486547e-14
	3.323047143980788e-08
	1.167712526475348e-06
	1.411291226907990e-07
	2.101743616672858e-01

 8	8.000000000000000e-02
	-8.190179836373992e-15
	-4.645371623887038e-18
	-1.783129148104381e-14
	3.589672159159531e-08
	1.269066927888119e-06
	1.533057885647659e-07
	2.101743631142595e-01

 9	9.000000000000000e-02
	-8.099788055881545e-15
	-4.775993498960897e-18
	-1.806332066549332e-14
	3.876394993824313e-08
	1.379497778879037e-06
	1.665406937543218e-07
	2.101743646869957e-01

 10	9.999999999999999e-02
	-8.010747917450821e-15
	-4.910358936718219e-18
	-1.829453311640845e-14
	4.184593334073672e-08
	1.499869496963773e-06
	1.809288547173718e-07
	2.101743663967879e-01

 11	1.100000000000000e-01
	-7.923076826034525e-15
	-5.048579374841659e-18
	-1.852484543270117e-14
	4.515725858793564e-08
	1.631134764651605e-06
	1.965743660308760e-07
	2.101743682560091e-01

 12	1.200000000000000e-01
	-7.836791274463151e-15
	-5.190769827144839e-18
	-1.875417545029434e-14
	4.871335812865912e-08
	1.774343768632624e-06
	2.135913285131399e-07
	2.101743702782231e-01

 13	1.300000000000000e-01
	-7.751906816808725e-15
	-5.337049011483740e-18
	-1.898244234501033e-14
	5.253054646014945e-08
	1.930654330339983e-06
	2.321048741409257e-07
	2.101743724783005e-01

 14	1.400000000000000e-01
	-7.668438044266937e-15
	-5.487539482791463e-18
	-1.920956673180008e-14
	5.662605712207645e-08
	2.101342991299105e-06
	2.522522969913909e-07
	2.101743748725663e-01

 15	1.500000000000000e-01
	-7.586398563588548e-15
	-5.642367771461615e-18
	-1.943547076007627e-14
	6.101808024185813e-08
	2.287817116871927e-06
	2.741843000746920e-07
	2.101743774789284e-01

 16	1.600000000000000e-01
	-7.505800978082553e-15
	-5.801664527317696e-18
	-1.966007820492760e-14
	6.572580057381165e-08
	2.491628081303536e-06
	2.980663685562091e-07
	2.101743803170648e-01

 17	1.700000000000000e-01
	-7.426656871202663e-15
	-5.965564669418996e-18
	-1.988331455401350e-14
	7.076943597175280e-08
	2.714485595222737e-06
	3.240802804888129e-07
	2.101743834085798e-01

 18	1.800000000000000e-01
	-7.348976792720975e-15
	-6.134207541960462e-18
	-2.010510708995193e-14
	7.617027623189250e-08
	2.958273233751839e-06
	3.524257667728061e-07
	2.101743867772172e-01

 19	1.900000000000000e-01
	-7.272770247481295e-15
	-6.307737076541951e-18
	-2.032538496803676e-14
	8.195072224052031e-08
	3.225065218964291e-06
	3.833223326220674e-07
	2.101743904490756e-01

 20	2.000000000000000e-01
	-7.198045686717427e-15
	-6.486301961093220e-18
	-2.054407928913736e-14
	8.813432535887408e-08
	3.517144504385582e-06
	4.170112533232921e-07
	2.101743944528386e-01

 21	2.100000000000000e-01
	-7.124810501911202e-15
	-6.670055815753522e-18
	-2.076112316765466e-14
	9.474582697583968e-08
	3.837022201358306e-06
	4.537577575142007e-07
	2.101743988200372e-01

 22	2.200000000000001e-01
	-7.053071021157197e-15
	-6.859157376021829e-18
	-2.097645179442740e-14
	1.018111981578224e-07
	4.187458377174983e-06
	4.938534115569251e-07
	2.101744035853351e-01

 23	2.300000000000001e-01
	-6.982832507992474e-15
	-7.053770683508018e-18
	-2.119000249450265e-14
	1.093576793241878e-07
	4.571484242705000e-06
	5.376187188225928e-07
	2.101744087868400e-01

 24	2.400000000000001e-01
	-6.914099162641513e-15
	-7.254065284630754e-18
	-2.140171477970521e-14
	1.174138198762416e-07
	4.992425732595952e-06
	5.854059478091351e-07
	2.101744144664361e-01

 25	2.500000000000001e-01
	-6.846874125619118e-15
	-7.460216437626810e-18
	-2.161153039596017e-14
	1.260095177077586e-07
	5.453928463808429e-06
	6.376022029604149e-07
	2.101744206701509e-01

 26	2.600000000000001e-01
	-6.781159483626580e-15
	-7.672405328251736e-18
	-2.181939336534307e-14
	1.351760585257550e-07
	5.959984038061548e-06
	6.946327518136651e-07
	2.101744274485491e-01

 27	2.700000000000001e-01
	-6.716956277670091e-15
	-7.890819294573909e-18
	-2.202525002285120e-14
	1.449461549114553e-07
	6.514957630553993e-06
	7.569646216440370e-07
	2.101744348571662e-01

 28	2.800000000000001e-01
	-6.654264513323578e-15
	-8.115652061281098e-18
	-2.222904904790964e-14
	1.553539850534623e-07
	7.123616780948091e-06
	8.251104780690547e-07
	2.101744429569646e-01

 29	2.900000000000001e-01
	-6.593083173052780e-15
	-8.347103983940663e-18
	-2.243074149064298e-14
	1.664352310879764e-07
	7.791161272963942e-06
	8.996327970896040e-07
	2.101744518148298e-01

 30	3.000000000000001e-01
	-6.533410230512171e-15
	-8.585382303677145e-18
	-2.263028079296221e-14
	1.782271169847543e-07
	8.523253955982138e-06
	9.811483407449141e-07
	2.101744615041086e-01

 31	3.100000000000001e-01
	-6.475242666721416e-15
	-8.830701412753830e-18
	-2.282762280453381e-14
	1.907684459223771e-07
	9.326052325811797e-06
	1.070332944913790e-06
	2.101744721051717e-01

 32	3.200000000000001e-01
	-6.418576488024221e-15
	-9.083283131567748e-18
	-2.302272579371305e-14
	2.040996371026091e-07
	1.020624064233498e-05
	1.167926625770367e-06
	2.101744837060313e-01

 33	3.300000000000001e-01
	-6.363406745728553e-15
	-9.343356997596168e-18
	-2.321555045354153e-14
	2.182627619612593e-07
	1.117106231926664e-05
	1.274739008969058e-06
	2.101744964029764e-01

 34	3.400000000000001e-01
	-6.309727557324694e-15
	-9.611160566858769e-18
	-2.340605990292039e-14
	2.333015797422983e-07
	1.222835227604168e-05
	1.391655082760453e-06
	2.101745103012610e-01

 35	3.500000000000001e-01
	-6.257532129174597e-15
	-9.886939728484751e-18
	-2.359421968308717e-14
	2.492615724132450e-07
	1.338656889425180e-05
	1.519641272902790e-06
	2.101745255158320e-01

 36	3.600000000000002e-01
	-6.206812780564719e-15
	-1.017094903301124e-17
	-2.377999774953519e-14
	2.661899789134558e-07
	1.465482517161129e-05
	1.659751833410728e-06
	2.101745421720876e-01

 37	3.700000000000002e-01
	-6.157560969012571e-15
	-1.046345203506492e-17
	-2.396336445952672e-14
	2.841358287430340e-07
	1.604291861578015e-05
	1.813135542858738e-06
	2.101745604066712e-01

 38	3.800000000000002e-01
	-6.109767316716928e-15
	-1.076472165111571e-17
	-2.414429255536115e-14
	3.031499749192635e-07
	1.756135936930678e-05
	1.981042691122748e-06
	2.101745803683035e-01

 39	3.900000000000002e-01
	-6.063421638041215e-15
	-1.107504053302362e-17
	-2.432275714356912e-14
	3.232851263500384e-07
	1.922139600641608e-05
	2.164832336101157e-06
	2.101746022186520e-01

 40	4.000000000000002e-01
	-6.018512967919651e-15
	-1.139470145814189e-17
	-2.449873567021192e-14
	3.445958797002800e-07
	2.103503839345408e-05
	2.365979804115351e-06
	2.101746261332198e-01

 41	4.100000000000002e-01
	-5.975029591076452e-15
	-1.172400773677439e-17
	-2.467220789247275e-14
	3.671387508582517e-07
	2.301507695876189e-05
	2.586084401372769e-06
	2.101746523022603e-01

 42	4.200000000000002e-01
	-5.932959071949873e-15
	-1.206327363782661e-17
	-2.484315584673188e-14
	3.909722061447106e-07
	2.517509767598576e-05
	2.826877297118223e-06
	2.101746809317241e-01

 43	4.300000000000002e-01
	-5.892288285213943e-15
	-1.241282483353793e-17
	-2.501156381332390e-14
	4.161566934495020e-07
	2.752949202888086e-05
	3.090229531952309e-06
	2.101747122442019e-01

 44	4.400000000000002e-01
	-5.853003446793153e-15
	-1.277299886422296e-17
	-2.517741827817798e-14
	4.427546735282714e-07
	3.009346119717537e-05
	3.378160097324348e-06
	2.101747464798986e-01

 45	4.500000000000002e-01
	-5.815090145267184e-15
	-1.314414562400258e-17
	-2.534070789154662e-14
	4.708306517471818e-07
	3.288301368379900e-05
	3.692844024497158e-06
	2.101747838975752e-01

 46	4.600000000000002e-01
	-5.778533373566345e-15
	-1.352662786855240e-17
	-2.550142342402756e-14
	5.004512106264681e-07
	3.591495559552463e-05
	4.036620413429146e-06
	2.101748247755363e-01

 47	4.700000000000003e-01
	-5.743317560860103e-15
	-1.392082174595686e-17
	-2.565955772008850e-14
	5.316850436057175e-07
	3.920687279371321e-05
	4.412000324153056e-06
	2.101748694125343e-01

 48	4.800000000000003e-01
	-5.709426604545594e-15
	-1.432711735180511e-17
	-2.581510564929996e-14
	5.646029905347830e-07
	4.277710415109478e-05
	4.821674445475192e-06
	2.101749181287072e-01

 49	4.900000000000003e-01
	-5.676843902245746e-15
	-1.474591930973272e-17
	-2.596806405548408e-14
	5.992780754864053e-07
	4.664470518620660e-05
	5.268520448346148e-06
	2.101749712664354e-01

 50	5.000000000000002e-01
	-5.645552383730721e-15
	-1.517764737867304e-17
	-2.611843170398340e-14
	6.357855475894443e-07
	5.082940140066445e-05
	5.755609924217864e-06
	2.101750291911841e-01

 51	5.100000000000002e-01
	-5.615534542680131e-15
	-1.562273708814776e-17
	-2.626620922725266e-14
	6.742029256972712e-07
	5.535153071734002e-05
	6.286214802305740e-06
	2.101750922922466e-01

 52	5.200000000000002e-01
	-5.586772468207721e-15
	-1.608164040300008e-17
	-2.641139906897205e-14
	7.146100478341080e-07
	6.023197451067983e-05
	6.863813134101398e-06
	2.101751609834434e-01

 53	5.300000000000002e-01
	-5.559247876074373e-15
	-1.655482641904508e-17
	-2.655400542687738e-14
	7.570891265047243e-07
	6.549207683459244e-05
	7.492094128951812e-06
	2.101752357037197e-01

 54	5.400000000000003e-01
	-5.532942139519473e-15
	-1.704278209119165e-17
	-2.669403419449788e-14
	8.017248111101342e-07
	7.115355158870107e-05
	8.174962321236556e-06
	2.101753169176293e-01

 55	5.500000000000003e-01
	-5.507836319645169e-15
	-1.754601299567264e-17
	-2.683149290198703e-14
	8.486042588846966e-07
	7.723837751999989e-05
	8.916540747849493e-06
	2.101754051157248e-01

 56	5.600000000000003e-01
	-5.483911195292455e-15
	-1.806504412810873e-17
	-2.696639065622657e-14
	8.978172159595167e-07
	8.376868113320153e-05
	9.721173014535645e-06
	2.101755008147864e-01

 57	5.700000000000003e-01
	-5.461147292352594e-15
	-1.860042073922151e-17
	-2.709873808037702e-14
	9.494561103631947e-07
	9.076660777765831e-05
	1.059342413132859e-05
	2.101756045579270e-01

 58	5.800000000000003e-01
	-5.439524912461242e-15
	-1.915270921010873e-17
	-2.722854725304293e-14
	1.003616158995291e-06
	9.825418138951843e-05
	1.153808000106499e-05
	2.101757169145260e-01

 59	5.900000000000003e-01
	-5.419024161027898e-15
	-1.972249796909926e-17
	-2.735583164721282e-14
	1.060395490850517e-06
	1.062531535916841e-04
	1.256014545085860e-05
	2.101758384799891e-01

 60	6.000000000000003e-01
	-5.399624974556906e-15
	-2.031039845231206e-17
	-2.748060606912749e-14
	1.119895289033448e-06
	1.147848430874920e-04
	1.366484070461301e-05
	2.101759698753300e-01

 61	6.100000000000003e-01
	-5.381307147221037e-15
	-2.091704611015792e-17
	-2.760288659722296e-14
	1.182219954385316e-06
	1.238699665224419e-04
	1.485759620521477e-05
	2.101761117465509e-01

 62	6.200000000000003e-01
	-5.364050356652259e-15
	-2.154310146214508e-17
	-2.772269052128684e-14
	1.247477293846944e-06
	1.335284622267150e-04
	1.614404570800044e-05
	2.101762647638072e-01

 63	6.300000000000003e-01
	-5.347834188919265e-15
	-2.218925120247255e-17
	-2.784003628195881e-14
	1.315778737005770e-06
	1.437793084840157e-04
	1.753001758240146e-05
	2.101764296203861e-01

 64	6.400000000000003e-01
	-5.332638162664330e-15
	-2.285620935903991e-17
	-2.795494341069885e-14
	1.387239584622333e-06
	1.546403381935033e-04
	1.902152427626635e-05
	2.101766070314358e-01

 65	6.500000000000004e-01
	-5.318441752376634e-15
	-2.354471850862930e-17
	-2.806743247033871e-14
	1.461979293302475e-06
	1.661280519947634e-04
	2.062474991706831e-05
	2.101767977325004e-01

 66	6.600000000000004e-01
	-5.305224410782523e-15
	-2.425555105118174e-17
	-2.817752499632438e-14
	1.540121800879868e-06
	1.782574321046804e-04
	2.234603604584905e-05
	2.101770024778121e-01

 67	6.700000000000004e-01
	-5.292965590336900e-15
	-2.498951054623713e-17
	-2.828524343874924e-14
	1.621795897499771e-06
	1.910417592631214e-04
	2.419186550301398e-05
	2.101772220383810e-01

 68	6.800000000000004e-01
	-5.281644763802857e-15
	-2.574743311477833e-17
	-2.839061110527134e-14
	1.707135647854186e-06
	2.044924352956976e-04
	2.616884450967395e-05
	2.101774571998535e-01

 69	6.900000000000004e-01
	-5.271241443910992e-15
	-2.653018890989666e-17
	-2.849365210499800e-14
	1.796280870513732e-06
	2.186188138708236e-04
	2.828368301370179e-05
	2.101777087601930e-01

 70	7.000000000000004e-01
	-5.261735202091249e-15
	-2.733868365988829e-17
	-2.859439129341698e-14
	1.889377680838828e-06
	2.334280420502603e-04
	3.054317339561213e-05
	2.101779775271290e-01

 71	7.100000000000004e-01
	-5.253105686274630e-15
	-2.817386028757477e-17
	-2.869285421844260e-14
	1.986579104537742e-06
	2.489249152033524e-04
	3.295416765526490e-05
	2.101782643154551e-01

 72	7.200000000000004e-01
	-5.245332637763665e-15
	-2.903670060986106e-17
	-2.878906706764154e-14
	2.088045769581114e-06
	2.651117477728587e-04
	3.552355322574207e-05
	2.101785699441631e-01

 73	7.300000000000004e-01
	-5.238395907173617e-15
	-2.992822712176517e-17
	-2.888305661669309e-14
	2.193946684890297e-06
	2.819882622432152e-04
	3.825822758498441e-05
	2.101788952334154e-01

 74	7.400000000000004e-01
	-5.232275469448589e-15
	-3.084950486937354e-17
	-2.897485017913437e-14
	2.304460115003171e-06
	2.995514984706488e-04
	4.116507185836813e-05
	2.101792410014183e-01

 75	7.500000000000004e-01
	-5.226951437958617e-15
	-3.180164341643269e-17
	-2.906447555743337e-14
	2.419774560800291e-06
	3.177957452906024e-04
	4.425092362582018e-05
	2.101796080611860e-01

 76	7.600000000000005e-01
	-5.222404077686408e-15
	-3.278579890954255e-17
	-2.915196099542680e-14
	2.540089857362441e-06
	3.367124960247705e-04
	4.752254916477674e-05
	2.101799972172506e-01

 77	7.700000000000005e-01
	-5.218613817513563e-15
	-3.380317624718334e-17
	-2.923733513215358e-14
	2.665618401149626e-06
	3.562904291728802e-04
	5.098661537485651e-05
	2.101804092623274e-01

 78	7.800000000000005e-01
	-5.215561261617906e-15
	-3.485503135810785e-17
	-2.932062695711022e-14
	2.796586519963265e-06
	3.765154151995125e-04
	5.464966164110362e-05
	2.101808449739705e-01

 79	7.900000000000005e-01
	-5.213227199995523e-15
	-3.594267359491788e-17
	-2.940186576694710e-14
	2.933236000606098e-06
	3.973705499215840e-04
	5.851807189972954e-05
	2.101813051112590e-01

 80	8.000000000000005e-01
	-5.211592618121417e-15
	-3.706746824897570e-17
	-2.948108112362186e-14
	3.075825790820084e-06
	4.188362145765617e-04
	6.259804717320176e-05
	2.101817904115312e-01

 81	8.100000000000005e-01
	-5.210638705765039e-15
	-3.823083919312889e-17
	-2.955830281401884e-14
	3.224633893998039e-06
	4.408901622147183e-04
	6.689557884012197e-05
	2.101823015872102e-01

 82	8.200000000000005e-01
	-5.210346864976761e-15
	-3.943427165908387e-17
	-2.963356081104136e-14
	3.379959477372166e-06
	4.635076296209648e-04
	7.141642289953712e-05
	2.101828393227438e-01

 83	8.300000000000005e-01
	-5.210698717263212e-15
	-4.067931515662877e-17
	-2.970688523617744e-14
	3.542125216932088e-06
	4.866614735435628e-04
	7.616607547920178e-05
	2.101834042716984e-01

 84	8.400000000000005e-01
	-5.211676109969190e-15
	-4.196758654231485e-17
	-2.977830632353674e-14
	3.711479905272048e-06
	5.103223295984539e-04
	8.114974982298611e-05
	2.101839970540081e-01

 85	8.500000000000005e-01
	-5.213261121885545e-15
	-4.330077324558022e-17
	-2.984785438535183e-14
	3.888401351976762e-06
	5.344587918387553e-04
	8.637235497433919e-05
	2.101846182534606e-01

 86	8.600000000000005e-01
	-5.215436068101154e-15
	-4.468063666077669e-17
	-2.991555977893504e-14
	4.073299610104313e-06
	5.590376106383033e-04
	9.183847635086763e-05
	2.101852684153625e-01

 87	8.700000000000006e-01
	-5.218183504119739e-15
	-4.610901571397012e-17
	-2.998145287507603e-14
	4.266620566895998e-06
	5.840239062431930e-04
	9.755235837999875e-05
	2.101859480444821e-01

 88	8.800000000000006e-01
	-5.221486229260100e-15
	-4.758783061388192e-17
	-3.004556402786565e-14
	4.468849942140178e-06
	6.093813951029855e-04
	1.035178893379758e-04
	2.101866576032463e-01

 89	8.900000000000006e-01
	-5.225327289359988e-15
	-4.911908679683208e-17
	-3.010792354592635e-14
	4.680517743752728e-06
	6.350726259079189e-04
	1.097385885045445e-04
	2.101873975101989e-01

 90	9.000000000000006e-01
	-5.229689978803458e-15
	-5.070487907605161e-17
	-3.016856166502747e-14
	4.902203237243813e-06
	6.610592221331242e-04
	1.162175957142437e-04
	2.101881681387597e-01

 91	9.100000000000006e-01
	-5.234557841890742e-15
	-5.234739600628501e-17
	-3.022750852206277e-14
	5.134540493975460e-06
	6.873021278268959e-04
	1.229576633528539e-04
	2.101889698162682e-01

 92	9.200000000000006e-01
	-5.239914673570627e-15
	-5.404892447516878e-17
	-3.028479413036290e-14
	5.378224592652627e-06
	7.137618533765509e-04
	1.299611508148403e-04
	2.101898028233207e-01

 93	9.300000000000006e-01
	-5.245744519553826e-15
	-5.581185453345287e-17
	-3.034044835631630e-14
	5.634018559541529e-06
	7.403987180401999e-04
	1.372300214051902e-04
	2.101906673933970e-01

 94	9.400000000000006e-01
	-5.252031675826266e-15
	-5.763868447675399e-17
	-3.039450089726830e-14
	5.902761145710871e-06
	7.671730861417004e-04
	1.447658416374289e-04
	2.101915637127711e-01

 95	9.500000000000006e-01
	-5.258760687580395e-15
	-5.953202619216102e-17
	-3.044698126066775e-14
	6.185375554423734e-06
	7.940455939838486e-04
	1.525697828493232e-04
	2.101924919207073e-01

 96	9.600000000000006e-01
	-5.265916347582019e-15
	-6.149461078368830e-17
	-3.049791874442865e-14
	6.482879248991948e-06
	8.209773647348929e-04
	1.606426250293321e-04
	2.101934521099058e-01

 97	9.700000000000006e-01
	-5.273483693989726e-15
	-6.352929449123666e-17
	-3.054734241847347e-14
	6.796394991309873e-06
	8.479302087779343e-04
	1.689847627205468e-04
	2.101944443272103e-01

 98	9.800000000000006e-01
	-5.281448007643338e-15
	-6.563906491845010e-17
	-3.059528110742315e-14
	7.127163284343326e-06
	8.748668072738446e-04
	1.775962128451003e-04
	2.101954685745329e-01

 99	9.900000000000007e-01
	-5.289794808836594e-15
	-6.782704758558277e-17
	-3.064176337439902e-14
	7.476556418546602e-06
	9.017508769668609e-04
	1.864766242709162e-04
	2.101965248099997e-01

 100	1.000000000000001e+00
	-5.298509853589300e-15
	-7.009651282423965e-17
	-3.068681750589973e-14
	7.846094353081560e-06
	9.285473145496149e-04
	1.956252889244312e-04
	2.101976129492593e-01

 101	1.010000000000001e+00
	-5.307579129432711e-15
	-7.245088303161647e-17
	-3.073047149771700e-14
	8.237462698444926e-06
	9.552223191919473e-04
	2.050411542375530e-04
	2.101987328669843e-01

 102	1.020000000000001e+00
	-5.316988850721120e-15
	-7.489374030268995e-17
	-3.077275304185279e-14
	8.652533108390462e-06
	9.817434921176196e-04
	2.147228367046296e-04
	2.101998843984637e-01

 103	1.030000000000001e+00
	-5.326725453482186e-15
	-7.742883445956019e-17
	-3.081368951440011e-14
	9.093386436636326e-06
	1.008079912376375e-03
	2.246686363153653e-04
	2.102010673413340e-01

 104	1.040000000000001e+00
	-5.336775589817111e-15
	-8.006009149800511e-17
	-3.085330796434989e-14
	9.562339068638134e-06
	1.034202188199666e-03
	2.348765516224010e-04
	2.102022814573719e-01

 105	1.050000000000001e+00
	-5.347126121860870e-15
	-8.279162247210915e-17
	-3.089163510328622e-14
	1.006197290157466e-05
	1.060082483539648e-03
	2.453442951972488e-04
	2.102035264743264e-01

 106	1.060000000000001e+00
	-5.357764115312217e-15
	-8.562773283866009e-17
	-3.092869729593126e-14
	1.059516951755665e-05
	1.085694519568048e-03
	2.560693092252102e-04
	2.102048020877892e-01

 107	1.070000000000001e+00
	-5.368676832541388e-15
	-8.857293228382102e-17
	-3.096452055150280e-14
	1.116514917680226e-05
	1.111013551050351e-03
	2.670487809884699e-04
	2.102061079630220e-01

 108	1.080000000000001e+00
	-5.379851725283449e-15
	-9.163194505541012e-17
	-3.099913051584589e-14
	1.177551534985294e-05
	1.136016317607873e-03
	2.782796579862096e-04
	2.102074437367654e-01

 109	1.090000000000001e+00
	-5.391276426923185e-15
	-9.480972082490807e-17
	-3.103255246430179e-14
	1.243030561130005e-05
	1.160680969935456e-03
	2.897586624410965e-04
	2.102088090189623e-01

 110	1.100000000000001e+00
	-5.402938744377388e-15
	-9.811144610406623e-17
	-3.106481129527607e-14
	1.313404983191111e-05
	1.184986971055002e-03
	3.014823049422791e-04
	2.102102033943847e-01

 111	1.110000000000001e+00
	-5.414826649578760e-15
	-1.015425562417555e-16
	-3.109593152446966e-14
	1.389183673064960e-05
	1.208914972657889e-03
	3.134468969757699e-04
	2.102116264241230e-01

 112	1.120000000000001e+00
	-5.426928270565046e-15
	-1.051087480273405e-16
	-3.112593727973585e-14
	1.470938998076448e-05
	1.232446666526862e-03
	3.256485620933379e-04
	2.102130776469100e-01

 113	1.130000000000001e+00
	-5.439231882176132e-15
	-1.088159929274779e-16
	-3.115485229652742e-14
	1.559315520086701e-05
	1.255564610938450e-03
	3.380832454705491e-04
	2.102145565802680e-01

 114	1.140000000000001e+00
	-5.451725896360751e-15
	-1.126705509838053e-16
	-3.118269991389776e-14
	1.655039929586663e-05
	1.278252031842770e-03
	3.507467216031232e-04
	2.102160627214196e-01

 115	1.150000000000001e+00
	-5.464398852093597e-15
	-1.166789853993942e-16
	-3.120950307102157e-14
	1.758932373284946e-05
	1.300492598516195e-03
	3.636345998882361e-04
	2.102175955479519e-01

 116	1.160000000000001e+00
	-5.477239404903393e-15
	-1.208481778421437e-16
	-3.123528430419965e-14
	1.871919342668673e-05
	1.322270173310033e-03
	3.767423278339728e-04
	2.102191545181993e-01

 117	1.170000000000001e+00
	-5.490236316010887e-15
	-1.251853444934925e-16
	-3.126006574431461e-14
	1.995048294443530e-05
	1.343568535110725e-03
	3.900651916362945e-04
	2.102207390713107e-01

 118	1.180000000000001e+00
	-5.503378441076195e-15
	-1.296980528707720e-16
	-3.128386911470326e-14
	2.129504168035440e-05
	1.364371076234053e-03
	4.035983138594574e-04
	2.102223486269793e-01

 119	1.190000000000001e+00
	-5.516654718553262e-15
	-1.343942394513797e-16
	-3.130671572941322e-14
	2.276627945351070e-05
	1.384660472765583e-03
	4.173366479543592e-04
	2.102239825847885e-01

 120	1.200000000000001e+00
	-5.530054157649781e-15
	-1.392822281264215e-16
	-3.132862649181139e-14
	2.437937356664966e-05
	1.404418328922862e-03
	4.312749693519382e-04
	2.102256403231511e-01

 121	1.210000000000001e+00
	-5.543565825890253e-15
	-1.443707495108200e-16
	-3.134962189351243e-14
	2.615149764234653e-05
	1.423624796972628e-03
	4.454078628789455e-04
	2.102273211978145e-01

 122	1.220000000000001e+00
	-5.557178836279669e-15
	-1.496689611357816e-16
	-3.136972201359619e-14
	2.810207139372924e-05
	1.442258175742830e-03
	4.597297062657349e-04
	2.102290245399041e-01

 123	1.230000000000001e+00
	-5.570882334065599e-15
	-1.551864685481616e-16
	-3.138894651808331e-14
	3.025302873012313e-05
	1.460294493018376e-03
	4.742346495566692e-04
	2.102307496534649e-01

 124	1.240000000000001e+00
	-5.584665483096872e-15
	-1.609333473393920e-16
	-3.140731465963928e-14
	3.262909904331178e-05
	1.477707080332351e-03
	4.889165903017471e-04
	2.102324958125212e-01

 125	1.250000000000001e+00
	-5.598517451777262e-15
	-1.669201661243931e-16
	-3.142484527747713e-14
	3.525809293572188e-05
	1.494466153122143e-03
	5.037691445143262e-04
	2.102342622576232e-01

 126	1.260000000000001e+00
	-5.612427398613825e-15
	-1.731580104880670e-16
	-3.144155679742956e-14
	3.817117879014067e-05
	1.510538415176646e-03
	5.187856135378177e-04
	2.102360481919011e-01

 127	1.270000000000001e+00
	-5.626384457360574e-15
	-1.796585079135617e-16
	-3.145746723216190e-14
	4.140313021633395e-05
	1.525886713974849e-03
	5.339589471901852e-04
	2.102378527766832e-01

 128	1.280000000000001e+00
	-5.640377721759838e-15
	-1.864338537025023e-16
	-3.147259418149723e-14
	4.499251641027651e-05
	1.540469782991212e-03
	5.492817038667943e-04
	2.102396751267591e-01

 129	1.290000000000001e+00
	-5.654396229885690e-15
	-1.934968378926589e-16
	-3.148695483282544e-14
	4.898179790115228e-05
	1.554242118125300e-03
	5.647460086968320e-04
	2.102415143053965e-01

 130	1.300000000000001e+00
	-5.668428948096172e-15
	-2.008608731730275e-16
	-3.150056596156799e-14
	5.341727949301214e-05
	1.567154047429420e-03
	5.803435113793839e-04
	2.102433693193306e-01

 131	1.310000000000001e+00
	-5.682464754604783e-15
	-2.085400237900133e-16
	-3.151344393166940e-14
	5.834886149144485e-05
	1.579152064845213e-03
	5.960653459753842e-04
	2.102452391139882e-01

 132	1.320000000000001e+00
	-5.696492422684002e-15
	-2.165490354312521e-16
	-3.152560469608831e-14
	6.382952146599876e-05
	1.590179507280984e-03
	6.119020956849050e-04
	2.102471225692850e-01

 133	1.330000000000001e+00
	-5.710500603519891e-15
	-2.249033660653714e-16
	-3.153706379725770e-14
	6.991445484798657e-05
	1.600177656391515e-03
	6.278437664492084e-04
	2.102490184965119e-01

 134	1.340000000000001e+00
	-5.724477808738921e-15
	-2.336192177069257e-16
	-3.154783636748711e-14
	7.665980774184746e-05
	1.609087336974179e-03
	6.438797739945014e-04
	2.102509256367674e-01

 135	1.350000000000001e+00
	-5.738412392636247e-15
	-2.427135690651113e-16
	-3.155793712927690e-14
	8.412095435714502e-05
	1.616851057376104e-03
	6.599989495363271e-04
	2.102528426616608e-01

 136	1.360000000000001e+00
	-5.752292534137673e-15
	-2.522042090231999e-16
	-3.156738039551759e-14
	9.235030915249915e-05
	1.623415688701365e-03
	6.761895695940635e-04
	2.102547681768477e-01

 137	1.370000000000001e+00
	-5.766106218534960e-15
	-2.621097708819565e-16
	-3.157618006954700e-14
	1.013947227886841e-04
	1.628735606669787e-03
	6.924394149876750e-04
	2.102567007290471e-01

 138	1.380000000000001e+00
	-5.779841219039497e-15
	-2.724497672847800e-16
	-3.158434964504108e-14
	1.112925894135646e-04
	1.632776126172031e-03
	7.087358628727905e-04
	2.102586388169932e-01

 139	1.390000000000001e+00
	-5.793485078204720e-15
	-2.832446257242322e-16
	-3.159190220571782e-14
	1.220708816004563e-04
	1.635516955836793e-03
	7.250660134580369e-04
	2.102605809065059e-01

 140	1.400000000000001e+00
	-5.807025089273933e-15
	-2.945157245087745e-16
	-3.159885042483820e-14
	1.337424109785100e-04
	1.636955309752266e-03
	7.414168498515531e-04
	2.102625254494934e-01

 141	1.410000000000001e+00
	-5.820448277516472e-15
	-3.062854290442306e-16
	-3.160520656449391e-14
	1.463036631350071e-04
	1.637108264209916e-03
	7.577754255650758e-04
	2.102644709062638e-01

 142	1.420000000000001e+00
	-5.833741381621510e-15
	-3.185771282572742e-16
	-3.161098247467762e-14
	1.597335499984044e-04
	1.636013966671503e-03
	7.741290701167033e-04
	2.102664157699686e-01

 143	1.430000000000001e+00
	-5.846890835228155e-15
	-3.314152709571695e-16
	-3.161618959213706e-14
	1.739933457639444e-04
	1.633731407957906e-03
	7.904655996961952e-04
	2.102683585916566e-01

 144	1.440000000000001e+00
	-5.859882748681116e-15
	-3.448254018985030e-16
	-3.162083893901826e-14
	1.890279261393187e-04
	1.630338650270658e-03
	8.067735178227453e-04
	2.102702980041372e-01

 145	1.450000000000001e+00
	-5.872702891115262e-15
	-3.588341972714418e-16
	-3.162494112130559e-14
	2.047682408719773e-04
	1.625929629905988e-03
	8.230421909667213e-04
	2.102722327428636e-01

 146	1.460000000000001e+00
	-5.885336672989842e-15
	-3.734694993082716e-16
	-3.162850632706620e-14
	2.211347598359191e-04
	1.620609871790460e-03
	8.392619864171688e-04
	2.102741616623243e-01

 147	1.470000000000001e+00
	-5.897769129212990e-15
	-3.887603496555541e-16
	-3.163154432450464e-14
	2.380414910837841e-04
	1.614491608403870e-03
	8.554243638948907e-04
	2.102760837469448e-01

 148	1.480000000000001e+00
	-5.909984903019194e-15
	-4.047370211209916e-16
	-3.163406445983183e-14
	2.554001095442857e-04
	1.607688851201382e-03
	8.715219177018284e-04
	2.102779981160834e-01

 149	1.490000000000001e+00
	-5.921968230786812e-15
	-4.214310473617665e-16
	-3.163607565494944e-14
	2.731237662505577e-04
	1.600312912073278e-03
	8.875483715035762e-04
	2.102799040234244e-01

 150	1.500000000000001e+00
	-5.933702928004839e-15
	-4.388752500378832e-16
	-3.163758640495207e-14
	2.911302522022564e-04
	1.592468740084606e-03
	9.034985322038516e-04
	2.102818008514766e-01

 151	1.510000000000001e+00
	-5.945172376623218e-15
	-4.571037629079764e-16
	-3.163860477545017e-14
	3.093443331008502e-04
	1.584252267488623e-03
	9.193682121756015e-04
	2.102836881023362e-01

 152	1.520000000000001e+00
	-5.956359514041512e-15
	-4.761520522975462e-16
	-3.163913839972231e-14
	3.276992133826227e-04
	1.575748792916201e-03
	9.351541302010872e-04
	2.102855653858861e-01

 153	1.530000000000001e+00
	-5.967246824015150e-15
	-4.960569333193916e-16
	-3.163919447571046e-14