Title: ** sch_path: /home/andylithia/openmpw/project-yatsuhashi-chip1/xschem/gmid_test/nmos_test.sch
Date: Tue Jul 19 23:15:45  2022
Plotname: DC transfer characteristic
Flags: real
No. Variables: 8
No. Points: 181
Variables:
	0	v(v-sweep)	voltage
	1	@m.xm1.msky130_fd_pr__nfet_01v8[cgb]	capacitance
	2	@m.xm1.msky130_fd_pr__nfet_01v8[cgd]	capacitance
	3	@m.xm1.msky130_fd_pr__nfet_01v8[cgs]	capacitance
	4	@m.xm1.msky130_fd_pr__nfet_01v8[gds]	admittance
	5	@m.xm1.msky130_fd_pr__nfet_01v8[gm]	admittance
	6	i(@m.xm1.msky130_fd_pr__nfet_01v8[id])	current
	7	v(@m.xm1.msky130_fd_pr__nfet_01v8[vth])	voltage
Values:
 0	0.000000000000000e+00
	-2.010796963491839e-15
	-5.828376872345731e-26
	-2.829656404729102e-18
	1.428732372843546e-25
	6.022961388083994e-23
	6.797493769878562e-25
	6.354692657040989e-01

 1	1.000000000000000e-02
	-2.002219660875240e-15
	-7.572840857434359e-26
	-2.822994125825531e-18
	3.465207856266354e-25
	1.460851327127238e-22
	1.648649656802144e-24
	6.354692657040989e-01

 2	2.000000000000000e-02
	-1.993749757325374e-15
	-9.839486051716343e-26
	-2.818342609682645e-18
	8.405354939443515e-25
	3.543442400284037e-22
	3.999045092218858e-24
	6.354692657040989e-01

 3	3.000000000000000e-02
	-1.985384949641738e-15
	-1.278461362643033e-25
	-2.816258961518850e-18
	2.038785073500410e-24
	8.594841993335518e-22
	9.700024824380882e-24
	6.354692657040989e-01

 4	4.000000000000000e-02
	-1.977122960327152e-15
	-1.661129317571824e-25
	-2.817469323979708e-18
	4.945097888457900e-24
	2.084695840852859e-21
	2.352759031104838e-23
	6.354692657040989e-01

 5	5.000000000000000e-02
	-1.968961524935198e-15
	-2.158334244827717e-25
	-2.822919571281098e-18
	1.199493946833705e-23
	5.056554437192292e-21
	5.706919869313901e-23
	6.354692657040989e-01

 6	6.000000000000000e-02
	-1.960898376242479e-15
	-2.804347509603178e-25
	-2.833841059561865e-18
	2.909345704908247e-23
	1.226449297025508e-20
	1.384204318079659e-22
	6.354692657040989e-01

 7	7.000000000000001e-02
	-1.952931224270539e-15
	-3.643685152257856e-25
	-2.851835801574683e-18
	7.056522837445089e-23
	2.974659118784899e-20
	3.357351234563892e-22
	6.354692657040989e-01

 8	8.000000000000000e-02
	-1.945057730906753e-15
	-4.734162860510876e-25
	-2.878986631779633e-18
	1.711476320121725e-22
	7.214517258968512e-20
	8.142880803253768e-22
	6.354692657040989e-01

 9	9.000000000000000e-02
	-1.937275477529534e-15
	-6.150856647319712e-25
	-2.917999407389171e-18
	4.150914720070521e-22
	1.749678959366690e-19
	1.974932019468133e-21
	6.354692657040989e-01

 10	9.999999999999999e-02
	-1.929581923621302e-15
	-7.991234085499049e-25
	-2.972386085178845e-18
	1.006672634883076e-21
	4.242983549230982e-19
	4.789583624643999e-21
	6.354692657040989e-01

 11	1.100000000000000e-01
	-1.921974353846667e-15
	-1.038179590189767e-24
	-3.046699634620260e-18
	2.441171700696416e-21
	1.028797726200119e-18
	1.161472634652748e-20
	6.354692657040989e-01

 12	1.200000000000000e-01
	-1.914449810486484e-15
	-1.348666221684450e-24
	-3.146834161551535e-18
	5.919003178934577e-21
	2.494026001154518e-18
	2.816179849759818e-20
	6.354692657040989e-01

 13	1.300000000000000e-01
	-1.907005007471820e-15
	-1.751865570374925e-24
	-3.280406205409688e-18
	1.434861265683023e-20
	6.044184046487706e-18
	6.826889677657181e-20
	6.354692657040989e-01

 14	1.400000000000000e-01
	-1.899636221606874e-15
	-2.275357947470078e-24
	-3.457235678589555e-18
	3.477209994328659e-20
	1.464079229509514e-17
	1.654417260929589e-19
	6.354692657040989e-01

 15	1.500000000000000e-01
	-1.892339156007261e-15
	-2.954856410392462e-24
	-3.689946861042661e-18
	8.422379836574804e-20
	3.543773910055895e-17
	4.007283968191858e-19
	6.354692657040989e-01

 16	1.600000000000000e-01
	-1.885108770481031e-15
	-3.836556797839368e-24
	-3.994710462196988e-18
	2.038456940933831e-19
	8.567661207391584e-17
	9.698799950378079e-19
	6.354692657040989e-01

 17	1.700000000000000e-01
	-1.877939073804835e-15
	-4.980135743214246e-24
	-4.392145858974534e-18
	4.927710652849873e-19
	2.067644647252765e-16
	2.344567954009870e-18
	6.354692657040989e-01

 18	1.800000000000000e-01
	-1.870822873942107e-15
	-6.462556285297211e-24
	-4.908396735404661e-18
	1.188995920685540e-18
	4.976005646453678e-16
	5.657169084248506e-18
	6.354692657040989e-01

 19	1.900000000000000e-01
	-1.863751484575867e-15
	-8.382869366058940e-24
	-5.576382036710514e-18
	2.860686049356926e-18
	1.192415263289528e-15
	1.361100406991540e-17
	6.354692657040989e-01

 20	2.000000000000000e-01
	-1.856714390060295e-15
	-1.086822839061561e-23
	-6.437206956385963e-18
	6.852566075585220e-18
	2.838814319811993e-15
	3.260426162232696e-17
	6.354692657040989e-01

 21	2.100000000000000e-01
	-1.849698875575051e-15
	-1.408136188822281e-23
	-7.541698162153880e-18
	1.630584227315280e-17
	6.692077107856897e-15
	7.758281672151749e-17
	6.354692657040989e-01

 22	2.200000000000001e-01
	-1.842689633035092e-15
	-1.822977700715441e-23
	-8.952012601901808e-18
	3.841530343331921e-17
	1.554591682033533e-14
	1.827796038971555e-16
	6.354692657040989e-01

 23	2.300000000000001e-01
	-1.835668351873442e-15
	-2.357700072621141e-23
	-1.074327970798820e-17
	8.919071430954505e-17
	3.535374662943938e-14
	4.243695752136344e-16
	6.354692657040989e-01

 24	2.400000000000001e-01
	-1.828613289652533e-15
	-3.045622452419394e-23
	-1.300530596123002e-17
	2.028187079704456e-16
	7.804216777224277e-14
	9.650141885245886e-16
	6.354692657040989e-01

 25	2.500000000000001e-01
	-1.821498780458665e-15
	-3.928683845226461e-23
	-1.584454159076429e-17
	4.483183395076558e-16
	1.655898640010466e-13
	2.133109785294859e-15
	6.354692657040989e-01

 26	2.600000000000001e-01
	-1.814294570330320e-15
	-5.059458026544803e-23
	-1.938681610457200e-17
	9.554508825169507e-16
	3.345180233859445e-13
	4.546068552398425e-15
	6.354692657040995e-01

 27	2.700000000000001e-01
	-1.806964768889484e-15
	-6.503645531428375e-23
	-2.378178274287434e-17
	1.949101259638512e-15
	6.392452646296771e-13
	9.273908366025909e-15
	6.354692657041001e-01

 28	2.800000000000001e-01
	-1.799466093703868e-15
	-8.343225738331246e-23
	-2.921047926615371e-17
	3.789481091290763e-15
	1.154720925679579e-12
	1.803054254680336e-14
	6.354692657041006e-01

 29	2.900000000000001e-01
	-1.791744998641639e-15
	-1.068054287921953e-22
	-3.589773239930315e-17
	7.021525191657140e-15
	1.983886987920014e-12
	3.340881348724530e-14
	6.354692657041018e-01

 30	3.000000000000001e-01
	-1.783733267963228e-15
	-1.364370196924584e-22
	-4.413109861433938e-17
	1.245239973923301e-14
	3.278156982608052e-12
	5.924928600477652e-14
	6.354692657041047e-01

 31	3.100000000000001e-01
	-1.775341755744241e-15
	-1.739374077299848e-22
	-5.428752550083043e-17
	2.128986401625964e-14
	5.275054977310208e-12
	1.012985908523830e-13
	6.354692657041081e-01

 32	3.200000000000001e-01
	-1.766452153084117e-15
	-2.213409234204993e-22
	-6.686797405939974e-17
	3.537833502809028e-14
	8.353860404394343e-12
	1.683326527975804e-13
	6.354692657041153e-01

 33	3.300000000000001e-01
	-1.756906949362451e-15
	-2.812283005655132e-22
	-8.253899347189847e-17
	5.757523901899935e-14
	1.311527047742822e-11
	2.739474266040298e-13
	6.354692657041245e-01

 34	3.400000000000001e-01
	-1.746498107742708e-15
	-3.568806557380824e-22
	-1.021787495691857e-16
	9.233321617657602e-14
	2.050117257844017e-11
	4.393291223876872e-13
	6.354692657041396e-01

 35	3.500000000000001e-01
	-1.734955423582562e-15
	-4.524661630019716e-22
	-1.269231810524855e-16
	1.465983071466506e-13
	3.198086014831365e-11
	6.975279461882183e-13
	6.354692657041637e-01

 36	3.600000000000002e-01
	-1.721936122341089e-15
	-5.732562639209290e-22
	-1.582056130680162e-16
	2.312018935076847e-13
	4.984252537337632e-11
	1.100081262950657e-12
	6.354692657042013e-01

 37	3.700000000000002e-01
	-1.707018014429995e-15
	-7.258615531219280e-22
	-1.977801726770529e-16
	3.630248737289902e-13
	7.764867731627988e-11
	1.727311335381608e-12
	6.354692657042592e-01

 38	3.800000000000002e-01
	-1.689699462306382e-15
	-9.184678506666947e-22
	-2.477157297457994e-16
	5.683669181441932e-13
	1.209462561643397e-10
	2.704357403895192e-12
	6.354692657043501e-01

 39	3.900000000000002e-01
	-1.669410480295115e-15
	-1.161040187369481e-21
	-3.103430554319008e-16
	8.881936447053139e-13
	1.883728957367708e-10
	4.226144141891744e-12
	6.354692657044918e-01

 40	4.000000000000002e-01
	-1.645540260036136e-15
	-1.465447133665466e-21
	-3.881343747663852e-16
	1.386308628321318e-12
	2.933798228355790e-10
	6.596269178355032e-12
	6.354692657047122e-01

 41	4.100000000000002e-01
	-1.617486643830125e-15
	-1.845442593744694e-21
	-4.834941700046434e-16
	2.162079899059257e-12
	4.569148614787634e-10
	1.028756701273296e-11
	6.354692657050549e-01

 42	4.200000000000002e-01
	-1.584731234150252e-15
	-2.316432566744087e-21
	-5.984483149942652e-16
	3.370257792421927e-12
	7.116003455909650e-10
	1.603642775589261e-11
	6.354692657055891e-01

 43	4.300000000000002e-01
	-1.546938181353990e-15
	-2.894960133696813e-21
	-7.342422705479486e-16
	5.251832547172090e-12
	1.108238400649363e-09
	2.498967622543576e-11
	6.354692657064209e-01

 44	4.400000000000002e-01
	-1.504064308054658e-15
	-3.597874815247438e-21
	-8.909013392460033e-16
	8.182074840812686e-12
	1.725938919120086e-09
	3.893328622352772e-11
	6.354692657077167e-01

 45	4.500000000000002e-01
	-1.456455177374614e-15
	-4.441219501516641e-21
	-1.066857675808638e-15
	1.274531197736024e-11
	2.687884750455765e-09
	6.064849108216127e-11
	6.354692657097341e-01

 46	4.600000000000002e-01
	-1.404892563573098e-15
	-5.438961053782178e-21
	-1.258782794746112e-15
	1.985128143401995e-11
	4.185864671858287e-09
	9.446617037344933e-11
	6.354692657128763e-01

 47	4.700000000000003e-01
	-1.350562573987256e-15
	-6.601778517352970e-21
	-1.461744842262868e-15
	3.091608966460429e-11
	6.518433068787714e-09
	1.471297140002454e-10
	6.354692657177698e-01

 48	4.800000000000003e-01
	-1.294935101353369e-15
	-7.936159874726041e-21
	-1.669720061694091e-15
	4.814343007051411e-11
	1.015022334306613e-08
	2.291375366533227e-10
	6.354692657253895e-01

 49	4.900000000000003e-01
	-1.239577623727161e-15
	-9.444010103085703e-21
	-1.876357379124802e-15
	7.496108013575500e-11
	1.580404006361237e-08
	3.568307254917869e-10
	6.354692657372546e-01

 50	5.000000000000002e-01
	-1.185952585566321e-15
	-1.112284639051878e-20
	-2.075793362149031e-15
	1.166971405665731e-10
	2.460359860605374e-08
	5.556366145035231e-10
	6.354692657557270e-01

 51	5.100000000000002e-01
	-1.135252162926250e-15
	-1.296650231485215e-20
	-2.263302509412836e-15
	1.816246078689388e-10
	3.829417087660204e-08
	8.651015963030714e-10
	6.354692657844815e-01

 52	5.200000000000002e-01
	-1.088305507085250e-15
	-1.496614804855902e-20
	-2.435647977806009e-15
	2.825674706111562e-10
	5.958221578053605e-08
	1.346683889374938e-09
	6.354692658292291e-01

 53	5.300000000000002e-01
	-1.045564310187059e-15
	-1.711139808000746e-20
	-2.591116856466366e-15
	4.393523345362292e-10
	9.265467280985039e-08
	2.095780476757896e-09
	6.354692658988351e-01

 54	5.400000000000003e-01
	-1.007148732187363e-15
	-1.939131655918560e-20
	-2.729317862337405e-15
	6.825080785242348e-10
	1.439645530926815e-07
	3.260193996702677e-09
	6.354692660070342e-01

 55	5.500000000000003e-01
	-9.729257362724498e-16
	-2.179520771817433e-20
	-2.850856162209047e-15
	1.058747917011558e-09
	2.233991717996429e-07
	5.068259924148602e-09
	6.354692661750482e-01

 56	5.600000000000003e-01
	-9.425943582752335e-16
	-2.431315654668561e-20
	-2.956987223186433e-15
	1.638856502055504e-09
	3.459690281427947e-07
	7.871142212301333e-09
	6.354692664355170e-01

 57	5.700000000000003e-01
	-9.157611535434988e-16
	-2.693634015914112e-20
	-3.049315062277297e-15
	2.528495161694583e-09
	5.341345417968173e-07
	1.220514146627466e-08
	6.354692668383023e-01

 58	5.800000000000003e-01
	-8.919982448504275e-16
	-2.965715807784744e-20
	-3.129563111120120e-15
	3.881792326514053e-09
	8.207420841609989e-07
	1.888046076474597e-08
	6.354692674587542e-01

 59	5.900000000000003e-01
	-8.708830397236907e-16
	-3.246923590726476e-20
	-3.199419649746293e-15
	5.915810361523836e-09
	1.252105511628221e-06
	2.910074775871140e-08
	6.354692684088649e-01

 60	6.000000000000003e-01
	-8.520222668920777e-16
	-3.536735063630011e-20
	-3.260446021910822e-15
	8.920407137661405e-09
	1.889805825673498e-06
	4.460881112615935e-08
	6.354692698509110e-01

 61	6.100000000000003e-01
	-8.350642196586226e-16
	-3.834731463386329e-20
	-3.314031442302509e-15
	1.325288932960181e-08
	2.808209950895716e-06
	6.783215930962772e-08
	6.354692720111577e-01

 62	6.200000000000003e-01
	-8.197029707761971e-16
	-4.140584396790719e-20
	-3.361379096785694e-15
	1.930358246251313e-08
	4.083400092238590e-06
	1.019644018022215e-07
	6.354692751877357e-01

 63	6.300000000000003e-01
	-8.056776126526100e-16
	-4.454042715089360e-20
	-3.403511317831358e-15
	2.742501577559124e-08
	5.771048567239190e-06
	1.508803382903344e-07
	6.354692797431634e-01

 64	6.400000000000003e-01
	-7.927687443841926e-16
	-4.774920337267319e-20
	-3.441285062514194e-15
	3.784015932966181e-08
	7.879137893023331e-06
	2.187940078823458e-07
	6.354692860729766e-01

 65	6.500000000000004e-01
	-7.807936940518018e-16
	-5.103085450800566e-20
	-3.475411891117042e-15
	5.057236812496222e-08
	1.035247782253182e-05
	3.096861412187481e-07
	6.354692945526853e-01

 66	6.600000000000004e-01
	-7.696014019281451e-16
	-5.438451218751617e-20
	-3.506478891959883e-15
	6.543980722505864e-08
	1.308471530240565e-05
	4.267075012762202e-07
	6.354693054820327e-01

 67	6.700000000000004e-01
	-7.590674943203679e-16
	-5.780967949587898e-20
	-3.534968559610358e-15
	8.211768426415224e-08
	1.595330235532331e-05
	5.718312326869516e-07
	6.354693190520087e-01

 68	6.800000000000004e-01
	-7.490898171021705e-16
	-6.130616598784545e-20
	-3.561276648955525e-15
	1.002289739398696e-07
	1.885460676287948e-05
	7.458763704847310e-07
	6.354693353462595e-01

 69	6.900000000000004e-01
	-7.395845363123633e-16
	-6.487403436327250e-20
	-3.585727648508892e-15
	1.194190584299592e-07
	2.172107955344238e-05
	9.488005576069568e-07
	6.354693543677270e-01

 70	7.000000000000004e-01
	-7.304828191929246e-16
	-6.851355708491609e-20
	-3.608587870819059e-15
	1.393950577178407e-07
	2.451994670750710e-05
	1.180066285021674e-06
	6.354693760724414e-01

 71	7.100000000000004e-01
	-7.217280588707578e-16
	-7.222518131713536e-20
	-3.630076341843069e-15
	1.599348531017432e-07
	2.724289374249271e-05
	1.438940376978442e-06
	6.354694003973630e-01

 72	7.200000000000004e-01
	-7.132735827595719e-16
	-7.600950073201354e-20
	-3.650373751342798e-15
	1.808792585288476e-07
	2.989513217393109e-05
	1.724682228240435e-06
	6.354694272780034e-01

 73	7.300000000000004e-01
	-7.050807774874582e-16
	-7.986723292601262e-20
	-3.669629746675995e-15
	2.021183939860122e-07
	3.248747758156690e-05
	2.036636490416424e-06
	6.354694566571933e-01

 74	7.400000000000004e-01
	-6.971175646097444e-16
	-8.379920138734965e-20
	-3.687968840491890e-15
	2.235782855610663e-07
	3.503174861266211e-05
	2.374263652784454e-06
	6.354694884880550e-01

 75	7.500000000000004e-01
	-6.893571671638482e-16
	-8.780632113600252e-20
	-3.705495175622019e-15
	2.452099699340951e-07
	3.753857404595366e-05
	2.737137544594668e-06
	6.354695227338689e-01

 76	7.600000000000005e-01
	-6.817771146736257e-16
	-9.188958731760868e-20
	-3.722296357669120e-15
	2.669814314249294e-07
	4.001662234056469e-05
	3.124928740006747e-06
	6.354695593665948e-01

 77	7.700000000000005e-01
	-6.743584420592706e-16
	-9.605006616803274e-20
	-3.738446532827052e-15
	2.888719441558554e-07
	4.247255130108255e-05
	3.537384313840075e-06
	6.354695983650309e-01

 78	7.800000000000005e-01
	-6.670850452948688e-16
	-1.002888878781167e-19
	-3.754008858030476e-15
	3.108682262829183e-07
	4.491126213886534e-05
	3.974308865405190e-06
	6.354696397130800e-01

 79	7.900000000000005e-01
	-6.599431632334293e-16
	-1.046072409809811e-19
	-3.769037483785789e-15
	3.329618768021319e-07
	4.733624101647788e-05
	4.435548641947488e-06
	6.354696833982866e-01

 80	8.000000000000005e-01
	-6.529209606784253e-16
	-1.090063679595030e-19
	-3.783579147251788e-15
	3.551476881819085e-07
	4.974988820267243e-05
	4.920979066590075e-06
	6.354697294106945e-01

 81	8.100000000000005e-01
	-6.460081925388525e-16
	-1.134875618326333e-19
	-3.797674454137792e-15
	3.774225443028691e-07
	5.215379702885626e-05
	5.430495322326867e-06
	6.354697777419754e-01

 82	8.200000000000005e-01
	-6.391959328414065e-16
	-1.180521635281661e-19
	-3.811358912374784e-15
	3.997847043782856e-07
	5.454897481955771e-05
	5.964005434813550e-06
	6.354698283848010e-01

 83	8.300000000000005e-01
	-6.324763555923022e-16
	-1.227015598888116e-19
	-3.824663767824654e-15
	4.222333392939497e-07
	5.693601078996963e-05
	6.521425292480511e-06
	6.354698813323792e-01

 84	8.400000000000005e-01
	-6.258425570915971e-16
	-1.274371821897116e-19
	-3.837616682057891e-15
	4.447682321546277e-07
	5.931520018211090e-05
	7.102675118549100e-06
	6.354699365781447e-01

 85	8.500000000000005e-01
	-6.192884114056225e-16
	-1.322605050705581e-19
	-3.850242284025093e-15
	4.673895852961658e-07
	6.168663427860977e-05
	7.707677006120502e-06
	6.354699941155276e-01

 86	8.600000000000005e-01
	-6.128084523896057e-16
	-1.371730458052865e-19
	-3.862562620897444e-15
	4.900978961811795e-07
	6.405026474092783e-05
	8.336353218633019e-06
	6.354700539378138e-01

 87	8.700000000000006e-01
	-6.063977769997815e-16
	-1.421763638481237e-19
	-3.874597528140402e-15
	5.128938778052158e-07
	6.640594909126684e-05
	8.988625034409738e-06
	6.354701160380374e-01

 88	8.800000000000006e-01
	-6.000519657081025e-16
	-1.472720606073283e-19
	-3.886364934747884e-15
	5.357784078429917e-07
	6.875348258683548e-05
	9.664411974200218e-06
	6.354701804089236e-01

 89	8.900000000000006e-01
	-5.937670166866981e-16
	-1.524617794078911e-19
	-3.897881116286293e-15
	5.587524963459896e-07
	7.109262040306700e-05
	1.036363129622012e-05
	6.354702470428447e-01

 90	9.000000000000006e-01
	-5.875392911075349e-16
	-1.577472056124465e-19
	-3.909160905802713e-15
	5.818172654153097e-07
	7.342309298578011e-05
	1.108619767684882e-05
	6.354703159318073e-01

 91	9.100000000000006e-01
	-5.813654674412060e-16
	-1.631300668758627e-19
	-3.920217870598798e-15
	6.049739366083285e-07
	7.574461662768325e-05
	1.183202301953006e-05
	6.354703870674350e-01

 92	9.200000000000006e-01
	-5.752425030658249e-16
	-1.686121335140329e-19
	-3.931064461248019e-15
	6.282238233448889e-07
	7.805690072839676e-05
	1.260101635183726e-05
	6.354704604409704e-01

 93	9.300000000000006e-01
	-5.691676018358578e-16
	-1.741952189713543e-19
	-3.941712137949493e-15
	6.515683265512446e-07
	8.035965276388419e-05
	1.339308378297387e-05
	6.354705360432800e-01

 94	9.400000000000006e-01
	-5.631381865294769e-16
	-1.798811803745668e-19
	-3.952171478294981e-15
	6.750089324071404e-07
	8.265258168087290e-05
	1.420812850259750e-05
	6.354706138648597e-01

 95	9.500000000000006e-01
	-5.571518753064816e-16
	-1.856719191631435e-19
	-3.962452269720260e-15
	6.985472114657868e-07
	8.493540021212212e-05
	1.504605080784979e-05
	6.354706938958475e-01

 96	9.600000000000006e-01
	-5.512064614783076e-16
	-1.915693817884962e-19
	-3.972563589273596e-15
	7.221848186772628e-07
	8.720782645424135e-05
	1.590674814961652e-05
	6.354707761260331e-01

 97	9.700000000000006e-01
	-5.452998960265569e-16
	-1.975755604757444e-19
	-3.982513872826856e-15
	7.459234940139057e-07
	8.946958494240505e-05
	1.679011519188798e-05
	6.354708605448725e-01

 98	9.800000000000006e-01
	-5.394302724138088e-16
	-2.036924940433593e-19
	-3.992310975451619e-15
	7.697650635047156e-07
	9.172040738203477e-05
	1.769604388004188e-05
	6.354709471414984e-01

 99	9.900000000000007e-01
	-5.335958133162054e-16
	-2.099222687767528e-19
	-4.001962224361055e-15
	7.937114405556273e-07
	9.396003314638675e-05
	1.862442351519647e-05
	6.354710359047377e-01

 100	1.000000000000001e+00
	-5.277948589757049e-16
	-2.162670193529387e-19
	-4.011474465561755e-15
	8.177646274776446e-07
	9.618820961396781e-05
	1.957514083268789e-05
	6.354711268231223e-01

 101	1.010000000000001e+00
	-5.220258569247822e-16
	-2.227289298140368e-19
	-4.020854105154074e-15
	8.419267171739608e-07
	9.840469239579462e-05
	2.054808008333616e-05
	6.354712198849004e-01

 102	1.020000000000001e+00
	-5.162873528803544e-16
	-2.293102345878428e-19
	-4.030107146054450e-15
	8.661998949559477e-07
	1.006092454863547e-04
	2.154312311657734e-05
	6.354713150780582e-01

 103	1.030000000000001e+00
	-5.105779826391192e-16
	-2.360132195543657e-19
	-4.039239220780334e-15
	8.905864404701912e-07
	1.028016413608575e-04
	2.256014946482220e-05
	6.354714123903235e-01

 104	1.040000000000001e+00
	-5.048964648351618e-16
	-2.428402231573820e-19
	-4.048255620830788e-15
	9.150887297265347e-07
	1.049816610343984e-04
	2.359903642858409e-05
	6.354715118091855e-01

 105	1.050000000000001e+00
	-4.992415944438131e-16
	-2.497936375605978e-19
	-4.057161323108766e-15
	9.397092372223924e-07
	1.071490940931577e-04
	2.465965916205181e-05
	6.354716133219063e-01

 106	1.060000000000001e+00
	-4.936122369345648e-16
	-2.568759098480570e-19
	-4.065961013760125e-15
	9.644505381619012e-07
	1.093037387047024e-04
	2.574189075886435e-05
	6.354717169155314e-01

 107	1.070000000000001e+00
	-4.880073229912536e-16
	-2.640895432688343e-19
	-4.074659109746365e-15
	9.893153107707770e-07
	1.114454016120931e-04
	2.684560233790343e-05
	6.354718225769049e-01

 108	1.080000000000001e+00
	-4.824258437302757e-16
	-2.714370985262043e-19
	-4.083259778420482e-15
	1.014306338709275e-06
	1.135738981150051e-04
	2.797066312895959e-05
	6.354719302926801e-01

 109	1.090000000000001e+00
	-4.768668463579483e-16
	-2.789211951115517e-19
	-4.091766955336078e-15
	1.039426513586725e-06
	1.156890520400673e-04
	2.911694055815301e-05
	6.354720400493352e-01

 110	1.100000000000001e+00
	-4.713294302166691e-16
	-2.865445126835785e-19
	-4.100184360487224e-15
	1.064678837581881e-06
	1.177906957019492e-04
	3.028430033301071e-05
	6.354721518331760e-01

 111	1.110000000000001e+00
	-4.658127431766812e-16
	-2.943097924934040e-19
	-4.108515513149441e-15
	1.090066426173896e-06
	1.198786698562799e-04
	3.147260652711099e-05
	6.354722656303584e-01

 112	1.120000000000001e+00
	-4.603159783360402e-16
	-3.022198388562212e-19
	-4.116763745469632e-15
	1.115592510989263e-06
	1.219528236451920e-04
	3.268172166422023e-05
	6.354723814268920e-01

 113	1.130000000000001e+00
	-4.548383709964871e-16
	-3.102775206704955e-19
	-4.124932214933468e-15
	1.141260442770384e-06
	1.240130145360810e-04
	3.391150680184923e-05
	6.354724992086563e-01

 114	1.140000000000001e+00
	-4.493791958869474e-16
	-3.184857729855201e-19
	-4.133023915822804e-15
	1.167073694471901e-06
	1.260591082540487e-04
	3.516182161416622e-05
	6.354726189614042e-01

 115	1.150000000000001e+00
	-4.439377646100553e-16
	-3.268475986183748e-19
	-4.141041689761818e-15
	1.193035864491134e-06
	1.280909787084033e-04
	3.643252447420136e-05
	6.354727406707794e-01

 116	1.160000000000001e+00
	-4.385134232899494e-16
	-3.353660698215177e-19
	-4.148988235439064e-15
	1.219150680039492e-06
	1.301085079135483e-04
	3.772347253528983e-05
	6.354728643223232e-01

 117	1.170000000000001e+00
	-4.331055504022572e-16
	-3.440443300019964e-19
	-4.156866117582409e-15
	1.245422000661898e-06
	1.321115859045376e-04
	3.903452181169495e-05
	6.354729899014853e-01

 118	1.180000000000001e+00
	-4.277135547693380e-16
	-3.528855954938436e-19
	-4.164677775255277e-15
	1.271853821911740e-06
	1.341001106475647e-04
	4.036552725836171e-05
	6.354731173936319e-01

 119	1.190000000000001e+00
	-4.223368737057414e-16
	-3.618931573847301e-19
	-4.172425529535147e-15
	1.298450279189190e-06
	1.360739879456262e-04
	4.171634284974961e-05
	6.354732467840566e-01

 120	1.200000000000001e+00
	-4.169749713004901e-16
	-3.710703833985530e-19
	-4.180111590628694e-15
	1.325215651751125e-06
	1.380331313395962e-04
	4.308682165769927e-05
	6.354733780579891e-01

 121	1.210000000000001e+00
	-4.116273368242160e-16
	-3.804207198352926e-19
	-4.187738064472351e-15
	1.352154366901320e-06
	1.399774620049364e-04
	4.447681592828727e-05
	6.354735112006032e-01

 122	1.220000000000001e+00
	-4.062934832504153e-16
	-3.899476935698647e-19
	-4.195306958862043e-15
	1.379271004369981e-06
	1.419069086442607e-04
	4.588617715762674e-05
	6.354736461970244e-01

 123	1.230000000000001e+00
	-4.009729458812035e-16
	-3.996549141115005e-19
	-4.202820189151500e-15
	1.406570300892168e-06
	1.438214073759708e-04
	4.731475616657317e-05
	6.354737830323423e-01

 124	1.240000000000001e+00
	-3.956652810688612e-16
	-4.095460757255729e-19
	-4.210279583554718e-15
	1.434057154995177e-06
	1.457209016191719e-04
	4.876240317429816e-05
	6.354739216916122e-01

 125	1.250000000000001e+00
	-3.903700650253643e-16
	-4.196249596194555e-19
	-4.217686888084679e-15
	1.461736632005387e-06
	1.476053419750770e-04
	5.022896787069339e-05
	6.354740621598701e-01

 126	1.260000000000001e+00
	-3.850868927127805e-16
	-4.298954361945748e-19
	-4.225043771157462e-15
	1.489613969285745e-06
	1.494746861051023e-04
	5.171429948757284e-05
	6.354742044221331e-01

 127	1.270000000000001e+00
	-3.798153768081488e-16
	-4.403614673664116e-19
	-4.232351827888125e-15
	1.517694581715537e-06
	1.513288986058538e-04
	5.321824686863905e-05
	6.354743484634104e-01

 128	1.280000000000001e+00
	-3.745551467369798e-16
	-4.510271089546351e-19
	-4.239612584102381e-15
	1.545984067424782e-06
	1.531679508811981e-04
	5.474065853818420e-05
	6.354744942687111e-01

 129	1.290000000000001e+00
	-3.693058477700839e-16
	-4.618965131454947e-19
	-4.246827500085939e-15
	1.574488213796262e-06
	1.549918210116144e-04
	5.628138276849894e-05
	6.354746418230476e-01

 130	1.300000000000001e+00
	-3.640671401789091e-16
	-4.729739310286481e-19
	-4.253997974091364e-15
	1.603213003748849e-06
	1.568004936210074e-04
	5.784026764596094e-05
	6.354747911114449e-01

 131	1.310000000000001e+00
	-3.588386984449686e-16
	-4.842637152108473e-19
	-4.261125345620718e-15
	1.632164622316578e-06
	1.585939597411686e-04
	5.941716113577919e-05
	6.354749421189464e-01

 132	1.320000000000001e+00
	-3.536202105193525e-16
	-4.957703225087575e-19
	-4.268210898500542e-15
	1.661349463538758e-06
	1.603722166740624e-04
	6.101191114537316e-05
	6.354750948306173e-01

 133	1.330000000000001e+00
	-3.484113771286136e-16
	-5.074983167235506e-19
	-4.275255863764429e-15
	1.690774137677155e-06
	1.621352678521057e-04
	6.262436558636267e-05
	6.354752492315536e-01

 134	1.340000000000001e+00
	-3.432119111237008e-16
	-5.194523714997170e-19
	-4.282261422357107e-15
	1.720445478777329e-06
	1.638831226966125e-04
	6.425437243515254e-05
	6.354754053068872e-01

 135	1.350000000000001e+00
	-3.380215368688182e-16
	-5.316372732709975e-19
	-4.289228707672836e-15
	1.750370552592059e-06
	1.656157964745608e-04
	6.590177979209235e-05
	6.354755630417889e-01

 136	1.360000000000001e+00
	-3.328399896673682e-16
	-5.440579242959998e-19
	-4.296158807939843e-15
	1.780556664885932e-06
	1.673333101538389e-04
	6.756643593919677e-05
	6.354757224214754e-01

 137	1.370000000000001e+00
	-3.276670152224128e-16
	-5.567193457866034e-19
	-4.303052768461605e-15
	1.811011370141135e-06
	1.690356902571172e-04
	6.924818939641013e-05
	6.354758834312136e-01

 138	1.380000000000001e+00
	-3.225023691292202e-16
	-5.696266811320546e-19
	-4.309911593724893e-15
	1.841742480685871e-06
	1.707229687144914e-04
	7.094688897640475e-05
	6.354760460563271e-01

 139	1.390000000000001e+00
	-3.173458163976938e-16
	-5.827851992219458e-19
	-4.316736249383762e-15
	1.872758076267852e-06
	1.723951827150301e-04
	7.266238383789951e-05
	6.354762102821956e-01

 140	1.400000000000001e+00
	-3.121971310026812e-16
	-5.962002978712923e-19
	-4.323527664127864e-15
	1.904066514096827e-06
	1.740523745573553e-04
	7.439452353748811e-05
	6.354763760942668e-01

 141	1.410000000000001e+00
	-3.070560954602323e-16
	-6.098775073510350e-19
	-4.330286731442943e-15
	1.935676439381516e-06
	1.756945914993816e-04
	7.614315807997102e-05
	6.354765434780509e-01

 142	1.420000000000001e+00
	-3.019225004281404e-16
	-6.238224940276351e-19
	-4.337014311270609e-15
	1.967596796387738e-06
	1.773218856073217e-04
	7.790813796717832e-05
	6.354767124191348e-01

 143	1.430000000000001e+00
	-2.967961443291128e-16
	-6.380410641151116e-19
	-4.343711231574105e-15
	1.999836840046332e-06
	1.789343136040744e-04
	7.968931424528148e-05
	6.354768829031784e-01

 144	1.440000000000001e+00
	-2.916768329951209e-16
	-6.525391675436011e-19
	-4.350378289816178e-15
	2.032406148141114e-06
	1.805319367170865e-04
	8.148653855058611e-05
	6.354770549159201e-01

 145	1.450000000000001e+00
	-2.865643793315458e-16
	-6.673229019480807e-19
	-4.357016254354738e-15
	2.065314634108974e-06
	1.821148205257839e-04
	8.329966315380011e-05
	6.354772284431813e-01

 146	1.460000000000001e+00
	-2.814586029998667e-16
	-6.823985167814149e-19
	-4.363625865761605e-15
	2.098572560486323e-06
	1.836830348086577e-04
	8.512854100277558e-05
	6.354774034708679e-01

 147	1.470000000000001e+00
	-2.763593301176986e-16
	-6.977724175560502e-19
	-4.370207838069179e-15
	2.132190553038148e-06
	1.852366533900770e-04
	8.697302576371954e-05
	6.354775799849747e-01

 148	1.480000000000001e+00
	-2.712663929751077e-16
	-7.134511702184040e-19
	-4.376762859949609e-15
	2.166179615608287e-06
	1.867757539868984e-04
	8.883297186087192e-05
	6.354777579715873e-01

 149	1.490000000000001e+00
	-2.661796297661737e-16
	-7.294415056608280e-19
	-4.383291595830656e-15
	2.200551145732005e-06
	1.883004180549315e-04
	9.070823451464995e-05
	6.354779374168840e-01

 150	1.500000000000001e+00
	-2.610988843348795e-16
	-7.457503243755800e-19
	-4.389794686952133e-15
	2.235316951054525e-06
	1.898107306353061e-04
	9.259866977825443e-05
	6.354781183071407e-01

 151	1.510000000000001e+00
	-2.560240059344316e-16
	-7.623847012558636e-19
	-4.396272752366612e-15
	2.270489266602131e-06
	1.913067802007905e-04
	9.450413457274218e-05
	6.354783006287323e-01

 152	1.520000000000001e+00
	-2.509548489992232e-16
	-7.793518905488685e-19
	-4.402726389887719e-15
	2.306080772955370e-06
	1.927886585020856e-04
	9.642448672056106e-05
	6.354784843681301e-01

 153	1.530000000000001e+00
	-2.458912729286669e-16
	-7.966593309660262e-19
	-4.409156176989189e-15