Title: ** sch_path: /home/andylithia/openmpw/project-yatsuhashi-chip1/xschem/gmid_test/nmos_test.sch
Date: Sun Jul 17 22:51:45  2022
Plotname: DC transfer characteristic
Flags: real
No. Variables: 8
No. Points: 181
Variables:
	0	v(v-sweep)	voltage
	1	@m.xm1.msky130_fd_pr__nfet_01v8[cgb]	capacitance
	2	@m.xm1.msky130_fd_pr__nfet_01v8[cgd]	capacitance
	3	@m.xm1.msky130_fd_pr__nfet_01v8[cgs]	capacitance
	4	@m.xm1.msky130_fd_pr__nfet_01v8[gds]	admittance
	5	@m.xm1.msky130_fd_pr__nfet_01v8[gm]	admittance
	6	i(@m.xm1.msky130_fd_pr__nfet_01v8[id])	current
	7	v(@m.xm1.msky130_fd_pr__nfet_01v8[vth])	voltage
Values:
 0	0.000000000000000e+00
	-1.951432733271185e-15
	-6.211355902820467e-20
	-8.472636553685452e-16
	7.128581976918626e-10
	3.934209241452405e-08
	2.643233723057662e-09
	4.506934125031788e-01

 1	1.000000000000000e-02
	-1.933316852938672e-15
	-6.528151265633707e-20
	-8.823405481417269e-16
	8.270125286240831e-10
	4.559838096805405e-08
	3.067175713984090e-09
	4.506934125462856e-01

 2	2.000000000000000e-02
	-1.915046523969963e-15
	-6.861196659299797e-20
	-9.184774949619721e-16
	9.592472249891320e-10
	5.283609061605870e-08
	3.558470542338287e-09
	4.506934125962400e-01

 3	3.000000000000000e-02
	-1.896624332238461e-15
	-7.211254241567944e-20
	-9.556749779316741e-16
	1.112376620846644e-09
	6.120614893235350e-08
	4.127669495329399e-09
	4.506934126541159e-01

 4	4.000000000000000e-02
	-1.878053713002278e-15
	-7.579112515593323e-20
	-9.939309306938373e-16
	1.289641050629987e-09
	7.088205246891483e-08
	4.786943443012653e-09
	4.506934127211508e-01

 5	5.000000000000000e-02
	-1.859338964986876e-15
	-7.965586430584753e-20
	-1.033240627818259e-15
	1.494768408076873e-09
	8.206311920700537e-08
	5.550324438514021e-09
	4.506934127987710e-01

 6	6.000000000000000e-02
	-1.840485259918792e-15
	-8.371517431922272e-20
	-1.073596585054931e-15
	1.732043899605013e-09
	9.497819117778566e-08
	6.433982045877889e-09
	4.506934128886212e-01

 7	7.000000000000001e-02
	-1.821498647170596e-15
	-8.797773462031750e-20
	-1.114988471899218e-15
	2.006388915929308e-09
	1.098898485851205e-07
	7.456539196917977e-09
	4.506934129925947e-01

 8	8.000000000000000e-02
	-1.802386053214514e-15
	-9.245248914079993e-20
	-1.157403037860138e-15
	2.323450009665114e-09
	1.270992058875291e-07
	8.639433036087961e-09
	4.506934131128713e-01

 9	9.000000000000000e-02
	-1.783155275625887e-15
	-9.714864541341661e-20
	-1.200824053747639e-15
	2.689699024594808e-09
	1.469513711720842e-07
	1.000732696971436e-08
	4.506934132519583e-01

 10	9.999999999999999e-02
	-1.763814971427373e-15
	-1.020756732590339e-19
	-1.245232269196508e-15
	3.112545470652973e-09
	1.698416632021010e-07
	1.158858101248727e-08
	4.506934134127400e-01

 11	1.100000000000000e-01
	-1.744374639620113e-15
	-1.072433031116860e-19
	-1.290605387524274e-15
	3.600462273187319e-09
	1.962226962594815e-07
	1.341578854413202e-08
	4.506934135985302e-01

 12	1.200000000000000e-01
	-1.724844597808396e-15
	-1.126615240342581e-19
	-1.336918058878268e-15
	4.163126040475250e-09
	2.266124619534185e-07
	1.552638878258408e-08
	4.506934138131355e-01

 13	1.300000000000000e-01
	-1.705235952888644e-15
	-1.183405814850550e-19
	-1.384141892464866e-15
	4.811572983690063e-09
	2.616035602632810e-07
	1.796336568347560e-08
	4.506934140609269e-01

 14	1.400000000000000e-01
	-1.685560565841297e-15
	-1.242909749027636e-19
	-1.432245488472672e-15
	5.558371581402462e-09
	3.018737600658098e-07
	2.077604563386289e-08
	4.506934143469196e-01

 15	1.500000000000000e-01
	-1.665831010733998e-15
	-1.305234551840981e-19
	-1.481194490103899e-15
	6.417812998198631e-09
	3.481981031970926e-07
	2.402100827435459e-08
	4.506934146768677e-01

 16	1.600000000000000e-01
	-1.646060528115514e-15
	-1.370490221344218e-19
	-1.530951655916625e-15
	7.406120135108911e-09
	4.014628067013273e-07
	2.776312712120761e-08
	4.506934150573662e-01

 17	1.700000000000000e-01
	-1.626262973050814e-15
	-1.438789219769209e-19
	-1.581476952457903e-15
	8.541675998520945e-09
	4.626812662858241e-07
	3.207675944142347e-08
	4.506934154959761e-01

 18	1.800000000000000e-01
	-1.606452758117417e-15
	-1.510246450104196e-19
	-1.632727666937777e-15
	9.845271813829463e-09
	5.330125209702402e-07
	3.704710814142683e-08
	4.506934160013613e-01

 19	1.900000000000000e-01
	-1.586644791750270e-15
	-1.584979235091749e-19
	-1.684658539459884e-15
	1.134037496980654e-08
	6.137826050255295e-07
	4.277178235253281e-08
	4.506934165834464e-01

 20	2.000000000000000e-01
	-1.566854412385844e-15
	-1.663107299605117e-19
	-1.737221914090316e-15
	1.305341644947952e-08
	7.065092885524571e-07
	4.936258802613068e-08
	4.506934172536007e-01

 21	2.100000000000000e-01
	-1.547097318914504e-15
	-1.744752757372964e-19
	-1.790367907816106e-15
	1.501409687410388e-08
	8.129307916121775e-07
	5.694758527644165e-08
	4.506934180248450e-01

 22	2.200000000000001e-01
	-1.527389498002454e-15
	-1.830040103024266e-19
	-1.844044596222591e-15
	1.725570965140596e-08
	9.350391466035989e-07
	6.567345550270483e-08
	4.506934189120940e-01

 23	2.300000000000001e-01
	-1.507747148889688e-15
	-1.919096210414314e-19
	-1.898198214508829e-15
	1.981547897334265e-08
	1.075118975750052e-06
	7.570822853042528e-08
	4.506934199324334e-01

 24	2.400000000000001e-01
	-1.488186606307284e-15
	-2.012050338170639e-19
	-1.952773372266278e-15
	2.273490955196484e-08
	1.235792538955868e-06
	8.724442812813251e-08
	4.506934211054399e-01

 25	2.500000000000001e-01
	-1.468724262185482e-15
	-2.109034143365673e-19
	-2.007713280271549e-15
	2.606014401978746e-08
	1.420071982819034e-06
	1.005027032014184e-07
	4.506934224535495e-01

 26	2.600000000000001e-01
	-1.449376486842555e-15
	-2.210181704177577e-19
	-2.062959987392783e-15
	2.984232286541002e-08
	1.631419771568406e-06
	1.157360215509903e-07
	4.506934240024850e-01

 27	2.700000000000001e-01
	-1.430159550353185e-15
	-2.315629552350358e-19
	-2.118454625583751e-15
	3.413794064627277e-08
	1.873818288364814e-06
	1.332345129703599e-07
	4.506934257817462e-01

 28	2.800000000000001e-01
	-1.411089544793645e-15
	-2.425516716200069e-19
	-2.174137660842715e-15
	3.900919104812923e-08
	2.151849539590975e-06
	1.533310581262571e-07
	4.506934278251842e-01

 29	2.900000000000001e-01
	-1.392182308049483e-15
	-2.539984774847555e-19
	-2.229949147946316e-15
	4.452429218528209e-08
	2.470785749954552e-06
	1.764077283520252e-07
	4.506934301716473e-01

 30	3.000000000000001e-01
	-1.373453349850123e-15
	-2.659177924281455e-19
	-2.285828986732848e-15
	5.075778240795373e-08
	2.836691373275222e-06
	2.029031881577317e-07
	4.506934328657433e-01

 31	3.100000000000001e-01
	-1.354917780663801e-15
	-2.783243055778260e-19
	-2.341717177706019e-15
	5.779077586525146e-08
	3.256536631373456e-06
	2.333211755834997e-07
	4.506934359586947e-01

 32	3.200000000000001e-01
	-1.336590244046631e-15
	-2.912329847122198e-19
	-2.397554074758071e-15
	6.571116623536218e-08
	3.738322100480627e-06
	2.682401738422101e-07
	4.506934395093231e-01

 33	3.300000000000001e-01
	-1.318484852991794e-15
	-3.046590866987050e-19
	-2.453280632870382e-15
	7.461376645781987e-08
	4.291213064013068e-06
	3.083243790688283e-07
	4.506934435851710e-01

 34	3.400000000000001e-01
	-1.300615130770062e-15
	-3.186181692758332e-19
	-2.508838648738362e-15
	8.460037206866301e-08
	4.925681324279044e-06
	3.543360512395789e-07
	4.506934482637497e-01

 35	3.500000000000001e-01
	-1.282993956692061e-15
	-3.331261041994968e-19
	-2.564170992383389e-15
	9.577973593014765e-08
	5.653650910569883e-06
	4.071493061569529e-07
	4.506934536339476e-01

 36	3.600000000000002e-01
	-1.265633517157132e-15
	-3.481990917653099e-19
	-2.619221827955819e-15
	1.082674428379788e-07
	6.488642655736470e-06
	4.677653635999149e-07
	4.506934597975759e-01

 37	3.700000000000002e-01
	-1.248545262284524e-15
	-3.638536767122755e-19
	-2.673936822096009e-15
	1.221856737427294e-07
	7.445910984968260e-06
	5.373292084192986e-07
	4.506934668710691e-01

 38	3.800000000000002e-01
	-1.231739868351478e-15
	-3.801067655065742e-19
	-2.728263338401667e-15
	1.376628511795708e-07
	8.542564550781412e-06
	6.171475462642925e-07
	4.506934749873086e-01

 39	3.900000000000002e-01
	-1.215227206190460e-15
	-3.969756449982069e-19
	-2.782150616746267e-15
	1.548331599744630e-07
	9.797660677019599e-06
	7.087078435102032e-07
	4.506934842975541e-01

 40	4.000000000000002e-01
	-1.199016315626265e-15
	-4.144780024387598e-19
	-2.835549936400019e-15
	1.738359403636610e-07
	1.123226209986281e-05
	8.136981329649943e-07
	4.506934949734677e-01

 41	4.100000000000002e-01
	-1.183115385963348e-15
	-4.326319468442281e-19
	-2.888414762119286e-15
	1.948149542649496e-07
	1.286944340607196e-05
	9.340271459570960e-07
	4.506935072091546e-01

 42	4.200000000000002e-01
	-1.167531742466598e-15
	-4.514560316840719e-19
	-2.940700872586988e-15
	2.179175294686982e-07
	1.473423407971082e-05
	1.071844202367600e-06
	4.506935212231876e-01

 43	4.300000000000002e-01
	-1.152271838715072e-15
	-4.709692788755153e-19
	-2.992366470802798e-15
	2.432935908283290e-07
	1.685348539281014e-05
	1.229558160135461e-06
	4.506935372605358e-01

 44	4.400000000000002e-01
	-1.137341254649429e-15
	-4.911912040610416e-19
	-3.043372276233378e-15
	2.710945919387908e-07
	1.925564970519210e-05
	1.409854603859487e-06
	4.506935555943143e-01

 45	4.500000000000002e-01
	-1.122744700080329e-15
	-5.121418431470287e-19
	-3.093681598736874e-15
	3.014723650846132e-07
	2.197046321497615e-05
	1.615710349163490e-06
	4.506935765272547e-01

 46	4.600000000000002e-01
	-1.108486023377781e-15
	-5.338417800823001e-19
	-3.143260394468430e-15
	3.345779111852567e-07
	2.502852688329575e-05
	1.850404267323971e-06
	4.506936003928119e-01

 47	4.700000000000003e-01
	-1.094568225020416e-15
	-5.563121758570028e-19
	-3.192077304153379e-15
	3.705601548322136e-07
	2.846078509430857e-05
	2.117523405193461e-06
	4.506936275557837e-01

 48	4.800000000000003e-01
	-1.080993475649694e-15
	-5.795747987051396e-19
	-3.240103674278282e-15
	4.095646920820190e-07
	3.229790742570109e-05
	2.420963399459497e-06
	4.506936584123544e-01

 49	4.900000000000003e-01
	-1.067763138246663e-15
	-6.036520554969834e-19
	-3.287313561896915e-15
	4.517325602577400e-07
	3.656958538145216e-05
	2.764922270067692e-06
	4.506936933894635e-01

 50	5.000000000000002e-01
	-1.054877794028615e-15
	-6.285670243121505e-19
	-3.333683723876206e-15
	4.971990594835533e-07
	4.130376263879323e-05
	3.153886829730885e-06
	4.506937329434248e-01

 51	5.100000000000002e-01
	-1.042337271649190e-15
	-6.543434881884716e-19
	-3.379193591516340e-15
	5.460926549605354e-07
	4.652582375078931e-05
	3.592611164471987e-06
	4.506937775577355e-01

 52	5.200000000000002e-01
	-1.030140679278263e-15
	-6.810059700473086e-19
	-3.423825231568332e-15
	5.985339870855707e-07
	5.225777174183507e-05
	4.086086918095382e-06
	4.506938277400544e-01

 53	5.300000000000002e-01
	-1.018286439136614e-15
	-7.085797688016689e-19
	-3.467563294742502e-15
	6.546350134928139e-07
	5.851742906456966e-05
	4.639505439520200e-06
	4.506938840183546e-01

 54	5.400000000000003e-01
	-1.006772324064674e-15
	-7.370909966596443e-19
	-3.510394952852275e-15
	7.144983031016977e-07
	6.531769846075029e-05
	5.258212208828591e-06
	4.506939469362835e-01

 55	5.500000000000003e-01
	-9.955954957139450e-16
	-7.665666176423744e-19
	-3.552309825770340e-15
	7.782164974907601e-07
	7.266592003559154e-05
	5.947654324209243e-06
	4.506940170478235e-01

 56	5.600000000000003e-01
	-9.847525439633938e-16
	-7.970344873426761e-19
	-3.593299899390091e-15
	8.458719496322607e-07
	8.056335815942331e-05
	6.713322183682996e-06
	4.506940949113610e-01

 57	5.700000000000003e-01
	-9.742395271806970e-16
	-8.285233939574242e-19
	-3.633359435784881e-15
	9.175365444932288e-07
	8.900484672145233e-05
	7.560686808097864e-06
	4.506941810833078e-01

 58	5.800000000000003e-01
	-9.640520129689577e-16
	-8.610631006345292e-19
	-3.672484876743167e-15
	9.932717005148619e-07
	9.797861407607528e-05
	8.495134502743771e-06
	4.506942761114591e-01

 59	5.900000000000003e-01
	-9.541851190628908e-16
	-8.946843891823980e-19
	-3.710674741830059e-15
	1.073128545789375e-06
	1.074663002451465e-04
	9.521900725473334e-06
	4.506943805282629e-01

 60	6.000000000000003e-01
	-9.446335540638886e-16
	-9.294191051978011e-19
	-3.747929522086960e-15
	1.157148258092138e-06
	1.174431692264045e-04
	1.064600510666902e-05
	4.506944948442114e-01

 61	6.100000000000003e-01
	-9.353916577301191e-16
	-9.653002046755424e-19
	-3.784251570432771e-15
	1.245362553981673e-06
	1.278785093506930e-04
	1.187218954509479e-05
	4.506946195415477e-01

 62	6.200000000000003e-01
	-9.264534405655731e-16
	-1.002361802171062e-18
	-3.819644989773540e-15
	1.337794309076649e-06
	1.387362052766972e-04
	1.320486118543413e-05
	4.506947550684617e-01

 63	6.300000000000003e-01
	-9.178126224801859e-16
	-1.040639220594647e-18
	-3.854115519764621e-15
	1.434458289424070e-06
	1.499754570893924e-04
	1.464804187717437e-05
	4.506949018339522e-01

 64	6.400000000000003e-01
	-9.094626703211468e-16
	-1.080169042723971e-18
	-3.887670423101687e-15
	1.535361972593851e-06
	1.615516156191395e-04
	1.620532543562023e-05
	4.506950602034800e-01

 65	6.500000000000004e-01
	-9.013968341034089e-16
	-1.120989164528652e-18
	-3.920318372145522e-15
	1.640506436727494e-06
	1.734170988827023e-04
	1.787984369391465e-05
	4.506952304955169e-01

 66	6.600000000000004e-01
	-8.936081817942313e-16
	-1.163138850408467e-18
	-3.952069336612222e-15
	1.749887296145712e-06
	1.855223526222778e-04
	1.967424197231691e-05
	4.506954129790494e-01

 67	6.700000000000004e-01
	-8.860896325326737e-16
	-1.206658790453943e-18
	-3.982934472985757e-15
	1.863495663164424e-06
	1.978168182399266e-04
	2.159066422048618e-05
	4.506956078720706e-01

 68	6.800000000000004e-01
	-8.788339881894982e-16
	-1.251591159845559e-18
	-4.012926016235846e-15
	1.981319117345122e-06
	2.102498737718728e-04
	2.363074773164354e-05
	4.506958153410440e-01

 69	6.900000000000004e-01
	-8.718339631962292e-16
	-1.297979680514912e-18
	-4.042057174350754e-15
	2.103342665372778e-06
	2.227717175627764e-04
	2.579562700280524e-05
	4.506960355012937e-01

 70	7.000000000000004e-01
	-8.650822125936585e-16
	-1.345869685198248e-18
	-4.070342026123363e-15
	2.229549676973275e-06
	2.353341695397172e-04
	2.808594603729285e-05
	4.506962684182604e-01

 71	7.100000000000004e-01
	-8.585713582699419e-16
	-1.395308184020534e-18
	-4.097795422560554e-15
	2.359922784628088e-06
	2.478913709689557e-04
	3.050187816429877e-05
	4.506965141095207e-01

 72	7.200000000000004e-01
	-8.522940133765333e-16
	-1.446343933754636e-18
	-4.124432892220472e-15
	2.494444737205708e-06
	2.604003698360004e-04
	3.304315229044797e-05
	4.506967725474484e-01

 73	7.300000000000004e-01
	-8.462428049264628e-16
	-1.499027509908316e-18
	-4.150270550720818e-15
	2.633099199918614e-06
	2.728215851011160e-04
	3.570908440063902e-05
	4.506970436624295e-01

 74	7.400000000000004e-01
	-8.404103945938933e-16
	-1.553411381798545e-18
	-4.175325014603950e-15
	2.775871495163834e-06
	2.851191487042842e-04
	3.849861308672422e-05
	4.506973273464688e-01

 75	7.500000000000004e-01
	-8.347894977466271e-16
	-1.609549990780976e-18
	-4.199613319691397e-15
	2.922749280764479e-06
	2.972611290725124e-04
	4.141033789651531e-05
	4.506976234570962e-01

 76	7.600000000000005e-01
	-8.293729007540782e-16
	-1.667499831809462e-18
	-4.223152844012018e-15
	3.073723163871612e-06
	3.092196438597922e-04
	4.444255935392173e-05
	4.506979318214334e-01

 77	7.700000000000005e-01
	-8.241534766226387e-16
	-1.727319538509689e-18
	-4.245961235343843e-15
	3.228787250293336e-06
	3.209708726555274e-04
	4.759331959424668e-05
	4.506982522403271e-01

 78	7.800000000000005e-01
	-8.191241990179926e-16
	-1.789069971958499e-18
	-4.268056343370394e-15
	3.387939630291277e-06
	3.324949824372251e-04
	5.086044267708251e-05
	4.506985844924503e-01

 79	7.900000000000005e-01
	-8.142781547402390e-16
	-1.852814313370380e-18
	-4.289456156417186e-15
	3.551182802929832e-06
	3.437759796836904e-04
	5.424157377346322e-05
	4.506989283382852e-01

 80	8.000000000000005e-01
	-8.096085547226069e-16
	-1.918618160901001e-18
	-4.310178742703482e-15
	3.718524041894867e-06
	3.548015034145446e-04
	5.773421656547532e-05
	4.506992835239315e-01

 81	8.100000000000005e-01
	-8.051087436281105e-16
	-1.986549630788926e-18
	-4.330242196018013e-15
	3.889975706335233e-06
	3.655625731145674e-04
	6.133576833815765e-05
	4.506996497846700e-01

 82	8.200000000000005e-01
	-8.007722081211575e-16
	-2.056679463065049e-18
	-4.349664585704629e-15
	4.065555500741974e-06
	3.760533046815133e-04
	6.504355237936635e-05
	4.507000268482594e-01

 83	8.300000000000005e-01
	-7.965925838925017e-16
	-2.129081132072634e-18
	-4.368463910825075e-15
	4.245286688189442e-06
	3.862706063463692e-04
	6.885484742896262e-05
	4.507004144379294e-01

 84	8.400000000000005e-01
	-7.925636615166669e-16
	-2.203830962050615e-18
	-4.386658058350611e-15
	4.429198261440603e-06
	3.962138650873160e-04
	7.276691403115654e-05
	4.507008122750629e-01

 85	8.500000000000005e-01
	-7.886793912206906e-16
	-2.281008248045866e-18
	-4.404264765221907e-15
	4.617325076486170e-06
	4.058846325082409e-04
	7.677701774133466e-05
	4.507012200815563e-01

 86	8.600000000000005e-01
	-7.849338866422514e-16
	-2.360695382433832e-18
	-4.421301584107165e-15
	4.809707953063684e-06
	4.152863175749196e-04
	8.088244922047857e-05
	4.507016375818576e-01

 87	8.700000000000006e-01
	-7.813214276537971e-16
	-2.442977987339324e-18
	-4.437785852681579e-15
	5.006393746604775e-06
	4.244238920715872e-04
	8.508054131645750e-05
	4.507020645047086e-01

 88	8.800000000000006e-01
	-7.778364623273044e-16
	-2.527945053265041e-18
	-4.453734666246817e-15
	5.207435395903716e-06
	4.333036132123840e-04
	8.936868328283734e-05
	4.507025005845882e-01

 89	8.900000000000006e-01
	-7.744736081120211e-16
	-2.615689084250410e-18
	-4.469164853506660e-15
	5.412891950600566e-06
	4.419327665525617e-04
	9.374433232358224e-05
	4.507029455628870e-01

 90	9.000000000000006e-01
	-7.712276522948651e-16
	-2.706306249900238e-18
	-4.484092955314364e-15
	5.622828582341114e-06
	4.503194312146472e-04
	9.820502267766537e-05
	4.507033991888297e-01

 91	9.100000000000006e-01
	-7.680935518101813e-16
	-2.799896544638609e-18
	-4.498535206208260e-15
	5.837316583222701e-06
	4.584722684833212e-04
	1.027483724727769e-04
	4.507038612201756e-01

 92	9.200000000000006e-01
	-7.650664324625282e-16
	-2.896563954563966e-18
	-4.512507518554431e-15
	6.056433354870308e-06
	4.664003340284257e-04
	1.073720885837363e-04
	4.507043314237059e-01

 93	9.300000000000006e-01
	-7.621415876228291e-16
	-2.996416632298733e-18
	-4.526025469118730e-15
	6.280262391216638e-06
	4.741129133796327e-04
	1.120739697304730e-04
	4.507048095755439e-01

 94	9.400000000000006e-01
	-7.593144764549609e-16
	-3.099567080248654e-18
	-4.539104287894884e-15
	6.508893257791478e-06
	4.816193797858235e-04
	1.168519080441048e-04
	4.507052954613149e-01

 95	9.500000000000006e-01
	-7.565807217264166e-16
	-3.206132342708086e-18
	-4.551758849020688e-15
	6.742421570062878e-06
	4.889290732308742e-04
	1.217038893190522e-04
	4.507057888761668e-01

 96	9.600000000000006e-01
	-7.539361072533304e-16
	-3.316234207270541e-18
	-4.564003663620077e-15
	6.980948973119930e-06
	4.960511991279436e-04
	1.266279921554968e-04
	4.507062896246864e-01

 97	9.700000000000006e-01
	-7.513765750268235e-16
	-3.429999416028287e-18
	-4.575852874415302e-15
	7.224583124748104e-06
	5.029947450589842e-04
	1.316223861808651e-04
	4.507067975207182e-01

 98	9.800000000000006e-01
	-7.488982220642466e-16
	-3.547559887070057e-18
	-4.587320251960214e-15
	7.473437683724088e-06
	5.097684138481619e-04
	1.366853295222349e-04
	4.507073123871059e-01

 99	9.900000000000007e-01
	-7.464972970258148e-16
	-3.669052946812882e-18
	-4.598419192352487e-15
	7.727632304950006e-06
	5.163805712416218e-04
	1.418151656843134e-04
	4.507078340553761e-01

 100	1.000000000000001e+00
	-7.441701966338465e-16
	-3.794621573732700e-18
	-4.609162716290085e-15
	7.987292642858141e-06
	5.228392064976801e-04
	1.470103199704903e-04
	4.507083623653744e-01

 101	1.010000000000001e+00
	-7.419134619289862e-16
	-3.924414654089171e-18
	-4.619563469344155e-15
	8.252550364346346e-06
	5.291519042588596e-04
	1.522692955678184e-04
	4.507088971648654e-01

 102	1.020000000000001e+00
	-7.397237743947554e-16
	-4.058587250269827e-18
	-4.629633723328089e-15
	8.523543172351965e-06
	5.353258261699017e-04
	1.575906694009404e-04
	4.507094383091140e-01

 103	1.030000000000001e+00
	-7.375979519790922e-16
	-4.197300882414612e-18
	-4.639385378649557e-15
	8.800414841037322e-06
	5.413677008153414e-04
	1.629730878451515e-04
	4.507099856604461e-01

 104	1.040000000000001e+00
	-7.355329450389561e-16
	-4.340723824015330e-18
	-4.648829967539351e-15
	9.083315263443256e-06
	5.472838206694476e-04
	1.684152623751273e-04
	4.507105390878096e-01

 105	1.050000000000001e+00
	-7.335258322315209e-16
	-4.489031412221780e-18
	-4.657978658057892e-15
	9.372400512366435e-06
	5.530800448747710e-04
	1.739159652133865e-04
	4.507110984663287e-01

 106	1.060000000000001e+00
	-7.315738163731886e-16
	-4.642406373627037e-18
	-4.666842258787024e-15
	9.667832915131615e-06
	5.587618067888187e-04
	1.794740250313394e-04
	4.507116636768692e-01

 107	1.070000000000001e+00
	-7.296742202854903e-16
	-4.801039166342530e-18
	-4.675431224121043e-15
	9.969781142860679e-06
	5.643341253584516e-04
	1.850883227457835e-04
	4.507122346056086e-01

 108	1.080000000000001e+00
	-7.278244826448424e-16
	-4.965128339219628e-18
	-4.683755660077405e-15
	1.027842031478349e-05
	5.698016194959683e-04
	1.907577874448696e-04
	4.507128111436246e-01

 109	1.090000000000001e+00
	-7.260221538512208e-16
	-5.134880909118415e-18
	-4.691825330553462e-15
	1.059393211809368e-05
	5.751685247381485e-04
	1.964813924698696e-04
	4.507133931864939e-01

 110	1.100000000000001e+00
	-7.242648919290998e-16
	-5.310512757172008e-18
	-4.699649663961282e-15
	1.091650494381967e-05
	5.804387115686024e-04
	2.022581516723637e-04
	4.507139806339141e-01

 111	1.110000000000001e+00
	-7.225504584722649e-16
	-5.492249045045860e-18
	-4.707237760178140e-15
	1.124633403916157e-05
	5.856157048743422e-04
	2.080871158607632e-04
	4.507145733893410e-01

 112	1.120000000000001e+00
	-7.208767146426490e-16
	-5.680324652242874e-18
	-4.714598397755406e-15
	1.158362167673356e-05
	5.907027040892184e-04
	2.139673694451888e-04
	4.507151713596464e-01

 113	1.130000000000001e+00
	-7.192416172319296e-16
	-5.874984635561720e-18
	-4.721740041333446e-15
	1.192857734114896e-05
	5.957026036500396e-04
	2.198980272856365e-04
	4.507157744547994e-01

 114	1.140000000000001e+00
	-7.176432147933293e-16
	-6.076484711872190e-18
	-4.728670849214759e-15
	1.228141793339173e-05
	6.006180134560621e-04
	2.258782317449469e-04
	4.507163825875670e-01

 115	1.150000000000001e+00
	-7.160796438498791e-16
	-6.285091765433186e-18
	-4.735398681051885e-15
	1.264236799343224e-05
	6.054512790796178e-04
	2.319071499453110e-04
	4.507169956732328e-01

 116	1.160000000000001e+00
	-7.145491251843449e-16
	-6.501084381041273e-18
	-4.741931105610712e-15
	1.301165994156401e-05
	6.102045015254270e-04
	2.379839712247495e-04
	4.507176136293402e-01

 117	1.170000000000001e+00
	-7.130499602150254e-16
	-6.724753404364767e-18
	-4.748275408573506e-15
	1.338953433896596e-05
	6.148795563792839e-04
	2.441079047882322e-04
	4.507182363754532e-01

 118	1.180000000000001e+00
	-7.115805274607454e-16
	-6.956402530887444e-18
	-4.754438600349619e-15
	1.377624016802567e-05
	6.194781122238817e-04
	2.502781775466805e-04
	4.507188638329375e-01

 119	1.190000000000001e+00
	-7.101392790975947e-16
	-7.196348924956872e-18
	-4.760427423864983e-15
	1.417203513299639e-05
	6.240016482311422e-04
	2.564940321360472e-04
	4.507194959247557e-01

 120	1.200000000000001e+00
	-7.087247376091529e-16
	-7.444923870509498e-18
	-4.766248362304667e-15
	1.457718598160220e-05
	6.284514708671875e-04
	2.627547251078948e-04
	4.507201325752876e-01

 121	1.210000000000001e+00
	-7.073354925314249e-16
	-7.702473455120780e-18
	-4.771907646785409e-15
	1.499196884825177e-05
	6.328287296685204e-04
	2.690595252823715e-04
	4.507207737101599e-01

 122	1.220000000000001e+00
	-7.059701972929842e-16
	-7.969359289111465e-18
	-4.777411263937833e-15
	1.541666961957136e-05
	6.371344320666663e-04
	2.754077122541763e-04
	4.507214192560964e-01

 123	1.230000000000001e+00
	-7.046275661504111e-16
	-8.245959261524408e-18
	-4.782764963380223e-15
	1.585158432302152e-05
	6.413694572538511e-04
	2.817985750419401e-04
	4.507220691407786e-01

 124	1.240000000000001e+00
	-7.033063712186282e-16
	-8.532668334873293e-18
	-4.787974265068024e-15
	1.629701953941943e-05
	6.455345690947894e-04
	2.882314108714536e-04
	4.507227232927216e-01

 125	1.250000000000001e+00
	-7.020054395952652e-16
	-8.829899380655710e-18
	-4.793044466505294e-15
	1.675329284025005e-05
	6.496304280996552e-04
	2.947055240832684e-04
	4.507233816411681e-01

 126	1.260000000000001e+00
	-7.007236505779126e-16
	-9.138084057714835e-18
	-4.797980649805983e-15
	1.722073325071448e-05
	6.536576024811992e-04
	3.012202251554037e-04
	4.507240441159804e-01

 127	1.270000000000001e+00
	-6.994599329727747e-16
	-9.457673735629686e-18
	-4.802787688594732e-15
	1.769968173952953e-05
	6.576165783250201e-04
	3.077748298321212e-04
	4.507247106475598e-01

 128	1.280000000000001e+00
	-6.982132624929450e-16
	-9.789140465412408e-18
	-4.807470254738315e-15
	1.819049173656667e-05
	6.615077689065766e-04
	3.143686583500873e-04
	4.507253811667637e-01

 129	1.290000000000001e+00
	-6.969826592443178e-16
	-1.013297799988975e-17
	-4.812032824900204e-15
	1.869352967949028e-05
	6.653315231917411e-04
	3.210010347535613e-04
	4.507260556048374e-01

 130	1.300000000000001e+00
	-6.957671852969410e-16
	-1.048970286624913e-17
	-4.816479686912040e-15
	1.920917559063333e-05
	6.690881335598898e-04
	3.276712862906398e-04
	4.507267338933517e-01

 131	1.310000000000001e+00
	-6.945659423394377e-16
	-1.085985549333207e-17
	-4.820814945956793e-15
	1.973782368542996e-05
	6.727778427897999e-04
	3.343787428829900e-04
	4.507274159641489e-01

 132	1.320000000000001e+00
	-6.933780694140079e-16
	-1.124400139636264e-17
	-4.825042530559461e-15
	2.027988301380723e-05
	6.764008503491747e-04
	3.411227366619032e-04
	4.507281017492990e-01

 133	1.330000000000001e+00
	-6.922027407293721e-16
	-1.164273242190193e-17
	-4.829166198382008e-15
	2.083577813602487e-05
	6.799573180285569e-04
	3.479026015639047e-04
	4.507287911810538e-01

 134	1.340000000000001e+00
	-6.910391635489460e-16
	-1.205666805592724e-17
	-4.833189541820052e-15
	2.140594983454431e-05
	6.834473749598989e-04
	3.547176729795855e-04
	4.507294841918114e-01

 135	1.350000000000001e+00
	-6.898865761514842e-16
	-1.248645679803269e-17
	-4.837115993399462e-15
	2.199085586359609e-05
	6.868711220590866e-04
	3.615672874496659e-04
	4.507301807140920e-01

 136	1.360000000000001e+00
	-6.887442458613157e-16
	-1.293277760485450e-17
	-4.840948830971650e-15
	2.259097173821792e-05
	6.902286359306111e-04
	3.684507824027741e-04
	4.507308806805032e-01

 137	1.370000000000001e+00
	-6.876114671453316e-16
	-1.339634140592010e-17
	-4.844691182706953e-15
	2.320679156462677e-05
	6.935199722710440e-04
	3.753674959296979e-04
	4.507315840237209e-01

 138	1.380000000000001e+00
	-6.864875597738118e-16
	-1.387789269521305e-17
	-4.848346031885792e-15
	2.383882891389603e-05
	6.967451688064813e-04
	3.823167665893117e-04
	4.507322906764669e-01

 139	1.390000000000001e+00
	-6.853718670422063e-16
	-1.437821120183642e-17
	-4.851916221487867e-15
	2.448761774100814e-05
	6.999042477973475e-04
	3.892979332416629e-04
	4.507330005714987e-01

 140	1.400000000000001e+00
	-6.842637540509498e-16
	-1.489811364323499e-17
	-4.855404458579904e-15
	2.515371335146378e-05
	7.029972181422321e-04
	3.963103349040781e-04
	4.507337136415867e-01

 141	1.410000000000001e+00
	-6.831626060404612e-16
	-1.543845556451198e-17
	-4.858813318502728e-15
	2.583769341773183e-05
	7.060240771105576e-04
	4.033533106264084e-04
	4.507344298195047e-01

 142	1.420000000000001e+00
	-6.820678267784680e-16
	-1.600013326742967e-17
	-4.862145248858764e-15
	2.654015904793768e-05
	7.089848117320883e-04
	4.104261993818522e-04
	4.507351490380208e-01

 143	1.430000000000001e+00
	-6.809788369968394e-16
	-1.658408583273508e-17
	-4.865402573301195e-15
	2.726173590929702e-05
	7.118793998694674e-04
	4.175283399700687e-04
	4.507358712298855e-01

 144	1.440000000000001e+00
	-6.798950728751787e-16
	-1.719129723947666e-17
	-4.868587495126168e-15
	2.800307540891148e-05
	7.147078109981539e-04
	4.246590709295187e-04
	4.507365963278225e-01

 145	1.450000000000001e+00
	-6.788159845684522e-16
	-1.782279858498863e-17
	-4.871702100669674e-15
	2.876485593465518e-05
	7.174700067164142e-04
	4.318177304562365e-04
	4.507373242645205e-01

 146	1.460000000000001e+00
	-6.777410347760555e-16
	-1.847967040920339e-17
	-4.874748362510596e-15
	2.954778415898750e-05
	7.201659410062965e-04
	4.390036563264286e-04
	4.507380549726284e-01

 147	1.470000000000001e+00
	-6.766696973496751e-16
	-1.916304512691006e-17
	-4.877728142481861e-15
	3.035259640863690e-05
	7.227955602649192e-04
	4.462161858205276e-04
	4.507387883847416e-01

 148	1.480000000000001e+00
	-6.756014559375635e-16
	-1.987410957150512e-17
	-4.880643194491232e-15
	3.118006010319786e-05
	7.253588031237842e-04
	4.534546556464643e-04
	4.507395244334004e-01

 149	1.490000000000001e+00
	-6.745358026627551e-16
	-2.061410765366678e-17
	-4.883495167153784e-15
	3.203097526578544e-05
	7.278556000723896e-04
	4.607184018601542e-04
	4.507402630510781e-01

 150	1.500000000000001e+00
	-6.734722368329631e-16
	-2.138434313822826e-17
	-4.886285606237802e-15
	3.290617610897591e-05
	7.302858729009574e-04
	4.680067597812968e-04
	4.507410041701731e-01

 151	1.510000000000001e+00
	-6.724102636799866e-16
	-2.218618254232930e-17
	-4.889015956926039e-15
	3.380653269934329e-05
	7.326495339757472e-04
	4.753190639027499e-04
	4.507417477230024e-01

 152	1.520000000000001e+00
	-6.713493931265424e-16
	-2.302105815765773e-17
	-4.891687565894252e-15
	3.473295270396919e-05
	7.349464853592072e-04
	4.826546477918841e-04
	4.507424936417852e-01

 153	1.530000000000001e+00
	-6.702891385786267e-16
	-2.389047119927463e-17
	-4.894301683208955e-15