Title: ** sch_path: /home/andylithia/openmpw/project-yatsuhashi-chip1/xschem/gmid_test/nmos_test.sch
Date: Tue Jul 19 23:15:45  2022
Plotname: DC transfer characteristic
Flags: real
No. Variables: 8
No. Points: 181
Variables:
	0	v(v-sweep)	voltage
	1	@m.xm1.msky130_fd_pr__nfet_01v8[cgb]	capacitance
	2	@m.xm1.msky130_fd_pr__nfet_01v8[cgd]	capacitance
	3	@m.xm1.msky130_fd_pr__nfet_01v8[cgs]	capacitance
	4	@m.xm1.msky130_fd_pr__nfet_01v8[gds]	admittance
	5	@m.xm1.msky130_fd_pr__nfet_01v8[gm]	admittance
	6	i(@m.xm1.msky130_fd_pr__nfet_01v8[id])	current
	7	v(@m.xm1.msky130_fd_pr__nfet_01v8[vth])	voltage
Values:
 0	0.000000000000000e+00
	-4.708590922578944e-15
	-7.710199694090551e-20
	-3.690362398330887e-15
	1.159662745184020e-09
	7.184589582219792e-08
	5.571286445932340e-09
	3.611937204463367e-01

 1	1.000000000000000e-02
	-4.654986174006561e-15
	-8.000350410403025e-20
	-3.806635522274392e-15
	1.318148217351881e-09
	8.157465284600056e-08
	6.337379330598230e-09
	3.611937205207508e-01

 2	2.000000000000000e-02
	-4.601268237547271e-15
	-8.300490465574982e-20
	-3.924839073642472e-15
	1.497784094393254e-09
	9.259225263661822e-08
	7.207073527853052e-09
	3.611937206052322e-01

 3	3.000000000000000e-02
	-4.547462591237897e-15
	-8.610894815462136e-20
	-4.044908279205817e-15
	1.701287772306404e-09
	1.050649493457509e-07
	8.194072316182212e-09
	3.611937207011158e-01

 4	4.000000000000000e-02
	-4.493595983508464e-15
	-8.931842111112896e-20
	-4.166773456026355e-15
	1.931704439067077e-09
	1.191799090423446e-07
	9.313844023966425e-09
	3.611937208099056e-01

 5	5.000000000000000e-02
	-4.439696349213775e-15
	-9.263614591701842e-20
	-4.290360136513859e-15
	2.192442376372865e-09
	1.351478291697234e-07
	1.058384397638793e-08
	3.611937209333020e-01

 6	6.000000000000000e-02
	-4.385792718403253e-15
	-9.606497975775313e-20
	-4.415589219563938e-15
	2.487311236475640e-09
	1.532059050657852e-07
	1.202376433170204e-08
	3.611937210732193e-01

 7	7.000000000000001e-02
	-4.331915118273325e-15
	-9.960781351505844e-20
	-4.542377147393034e-15
	2.820563382994040e-09
	1.736211961810268e-07
	1.365581553376644e-08
	3.611937212318259e-01

 8	8.000000000000000e-02
	-4.278094468817615e-15
	-1.032675706667222e-19
	-4.670636107457125e-15
	3.196938351700990e-09
	1.966944535436413e-07
	1.550504367757632e-08
	3.611937214115569e-01

 9	9.000000000000000e-02
	-4.224362472757314e-15
	-1.070472061910807e-19
	-4.800274258609184e-15
	3.621710445788533e-09
	2.227644802623841e-07
	1.759968875009628e-08
	3.611937216151694e-01

 10	9.999999999999999e-02
	-4.170751500396299e-15
	-1.109497054836968e-19
	-4.931195980425897e-15
	4.100739429084619e-09
	2.522131084754740e-07
	1.997158948354192e-08
	3.611937218457698e-01

 11	1.100000000000000e-01
	-4.117294470101931e-15
	-1.149780832939865e-19
	-5.063302144412536e-15
	4.640524219238780e-09
	2.854708891267144e-07
	2.265664145608803e-08
	3.611937221068595e-01

 12	1.200000000000000e-01
	-4.064024725162311e-15
	-1.191353826893963e-19
	-5.196490405584445e-15
	5.248259410264845e-09
	3.230236051597345e-07
	2.569531610889383e-08
	3.611937224023931e-01

 13	1.300000000000000e-01
	-4.010975907812687e-15
	-1.234246740549560e-19
	-5.330655512726221e-15
	5.931894369459748e-09
	3.654197339105423e-07
	2.913324952951914e-08
	3.611937227368293e-01

 14	1.400000000000000e-01
	-3.958181831257976e-15
	-1.278490541358543e-19
	-5.465689635445227e-15
	6.700194557314620e-09
	4.132790002081591e-07
	3.302191118802458e-08
	3.611937231152040e-01

 15	1.500000000000000e-01
	-3.905676350543435e-15
	-1.324116451305930e-19
	-5.601482705972552e-15
	7.562804610654454e-09
	4.673021772911644e-07
	3.741936430558759e-08
	3.611937235432016e-01

 16	1.600000000000000e-01
	-3.853493233141603e-15
	-1.371155938421582e-19
	-5.737922773518877e-15
	8.530312609383901e-09
	5.282823071554280e-07
	4.239113118045419e-08
	3.611937240272422e-01

 17	1.700000000000000e-01
	-3.801666030130167e-15
	-1.419640708944447e-19
	-5.874896368871418e-15
	9.614314816901476e-09
	5.971175240651826e-07
	4.801117857538367e-08
	3.611937245745850e-01

 18	1.800000000000000e-01
	-3.750227948832162e-15
	-1.469602700209058e-19
	-6.012288876820951e-15
	1.082748004513811e-08
	6.748256729963855e-07
	5.436304015244686e-08
	3.611937251934310e-01

 19	1.900000000000000e-01
	-3.699211727777190e-15
	-1.521074074320279e-19
	-6.149984913935491e-15
	1.218361264961369e-08
	7.625609166207071e-07
	6.154109487400645e-08
	3.611937258930641e-01

 20	2.000000000000000e-01
	-3.648649514819844e-15
	-1.574087212680408e-19
	-6.287868709154353e-15
	1.369771301105727e-08
	8.616325175241446e-07
	6.965202219869370e-08
	3.611937266839914e-01

 21	2.100000000000000e-01
	-3.598572749220056e-15
	-1.628674711427405e-19
	-6.425824484658327e-15
	1.538603421189785e-08
	9.735259637026703e-07
	7.881645668587702e-08
	3.611937275781067e-01

 22	2.200000000000001e-01
	-3.549012048449740e-15
	-1.684869377839722e-19
	-6.563736834483440e-15
	1.726613347313816e-08
	1.099926571649204e-06
	8.917086614786576e-08
	3.611937285888933e-01

 23	2.300000000000001e-01
	-3.499997100441550e-15
	-1.742704227758011e-19
	-6.701491098384905e-15
	1.935691678531393e-08
	1.242745648962377e-06
	1.008696785872775e-07
	3.611937297316326e-01

 24	2.400000000000001e-01
	-3.451556561939726e-15
	-1.802212484069791e-19
	-6.838973728522927e-15
	2.167867505273593e-08
	1.404149223746745e-06
	1.140876836228631e-07
	3.611937310236518e-01

 25	2.500000000000001e-01
	-3.403717963550532e-15
	-1.863427576297573e-19
	-6.976072646633966e-15
	2.425310997990136e-08
	1.586589247749354e-06
	1.290227337006561e-07
	3.611937324846076e-01

 26	2.600000000000001e-01
	-3.356507622021549e-15
	-1.926383141326270e-19
	-7.112677589466900e-15
	2.710334787014101e-08
	1.792837051396785e-06
	1.458987688372980e-07
	3.611937341367908e-01

 27	2.700000000000001e-01
	-3.309950560206483e-15
	-1.991113025299455e-19
	-7.248680440400847e-15
	3.025393948663483e-08
	2.026018669907534e-06
	1.649691856542835e-07
	3.611937360054857e-01

 28	2.800000000000001e-01
	-3.264070435095722e-15
	-2.057651286710118e-19
	-7.383975545320467e-15
	3.373084415216772e-08
	2.289651470263727e-06
	1.865205667312974e-07
	3.611937381193565e-01

 29	2.900000000000001e-01
	-3.218889474214211e-15
	-2.126032200704422e-19
	-7.518460010999220e-15
	3.756139634306645e-08
	2.587681290945115e-06
	2.108767795370854e-07
	3.611937405108801e-01

 30	3.000000000000001e-01
	-3.174428420608125e-15
	-2.196290264612722e-19
	-7.652033984431993e-15
	4.177425317040316e-08
	2.924519064536004e-06
	2.384034451231219e-07
	3.611937432168255e-01

 31	3.100000000000001e-01
	-3.130706486561605e-15
	-2.268460204716793e-19
	-7.784600911760469e-15
	4.639932134214037e-08
	3.305075635340708e-06
	2.695127651854055e-07
	3.611937462787623e-01

 32	3.200000000000001e-01
	-3.087741316105475e-15
	-2.342576984256579e-19
	-7.916067775645141e-15
	5.146766246590774e-08
	3.734793221219212e-06
	3.046686819042219e-07
	3.611937497436277e-01

 33	3.300000000000001e-01
	-3.045548956302322e-15
	-2.418675812674513e-19
	-8.046345310155367e-15
	5.701137588393125e-08
	4.219671715859526e-06
	3.443923281828398e-07
	3.611937536643252e-01

 34	3.400000000000001e-01
	-3.004143837217872e-15
	-2.496792156092715e-19
	-8.175348192467384e-15
	6.306345862697386e-08
	4.766287802977232e-06
	3.892677067118752e-07
	3.611937581003409e-01

 35	3.500000000000001e-01
	-2.963538760417782e-15
	-2.576961749010611e-19
	-8.302995210879110e-15
	6.965764252793074e-08
	5.381804678730381e-06
	4.399475150732546e-07
	3.611937631184129e-01

 36	3.600000000000002e-01
	-2.923744895762584e-15
	-2.659220607209722e-19
	-8.429209408866803e-15
	7.682820904002474e-08
	6.073970076144444e-06
	4.971590114771595e-07
	3.611937687932013e-01

 37	3.700000000000002e-01
	-2.884771786212698e-15
	-2.743605041846283e-19
	-8.553918205118071e-15
	8.460978284828013e-08
	6.851100279194796e-06
	5.617097925418223e-07
	3.611937752079613e-01

 38	3.800000000000002e-01
	-2.846627360299994e-15
	-2.830151674710224e-19
	-8.677053489676787e-15
	9.303710593232269e-08
	7.722047926638439e-06
	6.344933318568516e-07
	3.611937824552099e-01

 39	3.900000000000002e-01
	-2.809317951873531e-15
	-2.918897454624482e-19
	-8.798551696526724e-15
	1.021447943173349e-07
	8.696151655340407e-06
	7.164941071990807e-07
	3.611937906373758e-01

 40	4.000000000000002e-01
	-2.772848326684364e-15
	-3.009879674957505e-19
	-8.918353853119075e-15
	1.119670803197430e-07
	9.783166032304869e-06
	8.087921266369661e-07
	3.611937998673804e-01

 41	4.100000000000002e-01
	-2.737221715338886e-15
	-3.103135992219826e-19
	-9.036405607512331e-15
	1.225375436351009e-07
	1.099317077811172e-05
	9.125666508918315e-07
	3.611938102691735e-01

 42	4.200000000000002e-01
	-2.702439852120903e-15
	-3.198704445709096e-19
	-9.152657233942528e-15
	1.338888351073728e-07
	1.233645898578445e-05
	1.029098902742018e-06
	3.611938219781687e-01

 43	4.300000000000002e-01
	-2.668503019160716e-15
	-3.296623478174786e-19
	-9.267063617773607e-15
	1.460523974409169e-07
	1.382340487014767e-05
	1.159773555355933e-06
	3.611938351415534e-01

 44	4.400000000000002e-01
	-2.635410095413911e-15
	-3.396931957463314e-19
	-9.379584220892207e-15
	1.590581874498363e-07
	1.546431251286926e-05
	1.306078801377120e-06
	3.611938499184962e-01

 45	4.500000000000002e-01
	-2.603158609903281e-15
	-3.499669199111682e-19
	-9.490183028710136e-15
	1.729344046669404e-07
	1.726924805502559e-05
	1.469604824147949e-06
	3.611938664801371e-01

 46	4.600000000000002e-01
	-2.571744798674782e-15
	-3.604874989850417e-19
	-9.598828480015510e-15
	1.877072312417166e-07
	1.924785877923782e-05
	1.652040521951655e-06
	3.611938850094590e-01

 47	4.700000000000003e-01
	-2.541163664920621e-15
	-3.712589611982836e-19
	-9.705493380978475e-15
	2.034005880336056e-07
	2.140918345708635e-05
	1.855168375322121e-06
	3.611939057009097e-01

 48	4.800000000000003e-01
	-2.511409041731004e-15
	-3.822853868602164e-19
	-9.810154804661283e-15
	2.200359116468282e-07
	2.376145915110055e-05
	2.080857395425991e-06
	3.611939287598341e-01

 49	4.900000000000003e-01
	-2.482473656948869e-15
	-3.935709109613242e-19
	-9.912793977412371e-15
	2.376319568555846e-07
	2.631193029244174e-05
	2.331054146756155e-06
	3.611939544016901e-01

 50	5.000000000000002e-01
	-2.454349199618812e-15
	-4.051197258524192e-19
	-1.001339615353877e-14
	2.562046284378232e-07
	2.906666625058172e-05
	2.607771897786259e-06
	3.611939828510242e-01

 51	5.100000000000002e-01
	-2.427026387542655e-15
	-4.169360839973687e-19
	-1.011195047964929e-14
	2.757668458815741e-07
	3.203039372704017e-05
	2.913078016228256e-06
	3.611940143402377e-01

 52	5.200000000000002e-01
	-2.400495035478041e-15
	-4.290243007964230e-19
	-1.020844985004818e-14
	2.963284437655019e-07
	3.520635011536322e-05
	3.249079788171881e-06
	3.611940491081566e-01

 53	5.300000000000002e-01
	-2.374744123542959e-15
	-4.413887574769983e-19
	-1.030289075453330e-14
	3.178961098643030e-07
	3.859616346745755e-05
	3.617908899556734e-06
	3.611940873983832e-01

 54	5.400000000000003e-01
	-2.349761865418570e-15
	-4.540339040491530e-19
	-1.039527311991486e-14
	3.404733622137094e-07
	4.219976390692916e-05
	4.021704871066287e-06
	3.611941294575266e-01

 55	5.500000000000003e-01
	-2.325535775972431e-15
	-4.669642623231388e-19
	-1.048560014652703e-14
	3.640605655163993e-07
	4.601533026911640e-05
	4.462597780834297e-06
	3.611941755332727e-01

 56	5.600000000000003e-01
	-2.302052737956484e-15
	-4.801844289867592e-19
	-1.057387814094822e-14
	3.886549864071102e-07
	5.003927447958812e-05
	4.942690640950351e-06
	3.611942258723777e-01

 57	5.700000000000003e-01
	-2.279299067465959e-15
	-4.936990787402894e-19
	-1.066011634608695e-14
	4.142508862525853e-07
	5.426626477756059e-05
	5.464041811920991e-06
	3.611942807185973e-01

 58	5.800000000000003e-01
	-2.257260577878145e-15
	-5.075129674870977e-19
	-1.074432676972225e-14
	4.408396493674381e-07
	5.868928742685279e-05
	6.028647842992424e-06
	3.611943403106434e-01

 59	5.900000000000003e-01
	-2.235922642021952e-15
	-5.216309355785436e-19
	-1.082652401251819e-14
	4.684099438073430e-07
	6.329974511703439e-05
	6.638427115407475e-06
	3.611944048801369e-01

 60	6.000000000000003e-01
	-2.215270252361485e-15
	-5.360579111115524e-19
	-1.090672509645715e-14
	4.969479112779546e-07
	6.808758892049532e-05
	7.295204640878082e-06
	3.611944746496838e-01

 61	6.100000000000003e-01
	-2.195288079007323e-15
	-5.507989132780740e-19
	-1.098494929456167e-14
	5.264373821907688e-07
	7.304147950781812e-05
	8.000698330217803e-06
	3.611945498310609e-01

 62	6.200000000000003e-01
	-2.175960525399702e-15
	-5.658590557655917e-19
	-1.106121796269687e-14
	5.568601115178094e-07
	7.814897239049375e-05
	8.756506999211084e-06
	3.611946306235648e-01

 63	6.300000000000003e-01
	-2.157271781536001e-15
	-5.812435502080761e-19
	-1.113555437416947e-14
	5.881960308530987e-07
	8.339672129605222e-05
	9.564100322920344e-06
	3.611947172125724e-01

 64	6.400000000000003e-01
	-2.139205874642496e-15
	-5.969577096874988e-19
	-1.120798355776222e-14
	6.204235119816633e-07
	8.877069340624256e-05
	1.042481088855741e-05
	3.611948097683196e-01

 65	6.500000000000004e-01
	-2.121746717215696e-15
	-6.130069522857084e-19
	-1.127853213976858e-14
	6.535196372819243e-07
	9.425639010498746e-05
	1.133982843368784e-05
	3.611949084449275e-01

 66	6.600000000000004e-01
	-2.104878152382605e-15
	-6.293968046872861e-19
	-1.134722819051903e-14
	6.874604724354697e-07
	9.983906707276144e-05
	1.231019629373158e-05
	3.611950133796814e-01

 67	6.700000000000004e-01
	-2.088583996551340e-15
	-6.461329058339069e-19
	-1.141410107582062e-14
	7.222213371757601e-07
	1.055039479961673e-04
	1.333681002306181e-05
	3.611951246925797e-01

 68	6.800000000000004e-01
	-2.072848079343645e-15
	-6.632210106311644e-19
	-1.147918131366426e-14
	7.577770701575570e-07
	1.112364267929632e-04
	1.442041809970604e-05
	3.611952424861297e-01

 69	6.900000000000004e-01
	-2.057654280819545e-15
	-6.806669937091670e-19
	-1.154250043649007e-14
	7.941022844524174e-07
	1.170222540335571e-04
	1.556162457645515e-05
	3.611953668454106e-01

 70	7.000000000000004e-01
	-2.042986566020539e-15
	-6.984768532380607e-19
	-1.160409085924193e-14
	8.311716106528023e-07
	1.228477041172047e-04
	1.676089350233648e-05
	3.611954978383478e-01

 71	7.100000000000004e-01
	-2.028829016872971e-15
	-7.166567148005465e-19
	-1.166398575338516e-14
	8.689599250771570e-07
	1.286997206825947e-04
	1.801855490857644e-05
	3.611956355162279e-01

 72	7.200000000000004e-01
	-2.015165861505716e-15
	-7.352128353229630e-19
	-1.172221892701030e-14
	9.074425610926472e-07
	1.345660386505155e-04
	1.933481213260637e-05
	3.611957799143726e-01

 73	7.300000000000004e-01
	-2.001981501047960e-15
	-7.541516070672530e-19
	-1.177882471109721e-14
	9.465955020919414e-07
	1.404352821692616e-04
	2.070975024205606e-05
	3.611959310530030e-01

 74	7.400000000000004e-01
	-1.989260533982336e-15
	-7.734795616860236e-19
	-1.183383785196998e-14
	9.863955551615290e-07
	1.462970385284949e-04
	2.214334531745477e-05
	3.611960889382235e-01

 75	7.500000000000004e-01
	-1.976987778136749e-15
	-7.932033743436433e-19
	-1.188729340993406e-14
	1.026820504947885e-06
	1.521419088000124e-04
	2.363547435657904e-05
	3.611962535631101e-01

 76	7.600000000000005e-01
	-1.965148290405032e-15
	-8.133298679054082e-19
	-1.193922666405029e-14
	1.067849247654617e-06
	1.579615365391220e-04
	2.518592557395386e-05
	3.611964249088855e-01

 77	7.700000000000005e-01
	-1.953727384291649e-15
	-8.338660171984181e-19
	-1.198967302296973e-14
	1.109461905482011e-06
	1.637486163311540e-04
	2.679440888472234e-05
	3.611966029461415e-01

 78	7.800000000000005e-01
	-1.942710645379910e-15
	-8.548189533468462e-19
	-1.203866794172458e-14
	1.151639922144983e-06
	1.694968842943223e-04
	2.846056638168091e-05
	3.611967876360763e-01

 79	7.900000000000005e-01
	-1.932083944825859e-15
	-8.761959681852540e-19
	-1.208624684434647e-14
	1.194366140375328e-06
	1.752010928590182e-04
	3.018398263653408e-05
	3.611969789317417e-01

 80	8.000000000000005e-01
	-1.921833450982079e-15
	-8.980045187528289e-19
	-1.213244505216208e-14
	1.237624862529006e-06
	1.808569722454203e-04
	3.196419468021852e-05
	3.611971767792699e-01

 81	8.100000000000005e-01
	-1.911945639256281e-15
	-9.202522318728911e-19
	-1.217729771759885e-14
	1.281401895581757e-06
	1.864611810698696e-04
	3.380070154148311e-05
	3.611973811190649e-01

 82	8.200000000000005e-01
	-1.902407300309797e-15
	-9.429469088209444e-19
	-1.222083976331849e-14
	1.325684581909632e-06
	1.920112484413023e-04
	3.569297324693101e-05
	3.611975918869365e-01

 83	8.300000000000005e-01
	-1.893205546700367e-15
	-9.660965300853218e-19
	-1.226310582648409e-14
	1.370461817319824e-06
	1.975055097782266e-04
	3.764045920872873e-05
	3.611978090151740e-01

 84	8.400000000000005e-01
	-1.884327818072201e-15
	-9.897092602247200e-19
	-1.230413020795756e-14
	1.415724057826745e-06
	2.029430384000320e-04
	3.964259594764433e-05
	3.611980324335528e-01

 85	8.500000000000005e-01
	-1.875761884994428e-15
	-1.013793452826440e-18
	-1.234394682621710e-14
	1.461463316664159e-06
	2.083235747383992e-04
	4.169881411859367e-05
	3.611982620702527e-01

 86	8.600000000000005e-01
	-1.867495851546633e-15
	-1.038357655570425e-18
	-1.238258917577933e-14
	1.507673152991763e-06
	2.136474547882690e-04
	4.380854482320556e-05
	3.611984978526979e-01

 87	8.700000000000006e-01
	-1.859518156747458e-15
	-1.063410615402830e-18
	-1.242009028990827e-14
	1.554348653699684e-06
	2.189155391844403e-04
	4.597122520894443e-05
	3.611987397083235e-01

 88	8.800000000000006e-01
	-1.851817574918788e-15
	-1.088961283824410e-18
	-1.245648270739204e-14
	1.601486409642139e-06
	2.241291440585677e-04
	4.818630336703259e-05
	3.611989875652353e-01

 89	8.900000000000006e-01
	-1.844383215075136e-15
	-1.115018822298251e-18
	-1.249179844316824e-14
	1.649084487546099e-06
	2.292899746092499e-04
	5.045324255182717e-05
	3.611992413528044e-01

 90	9.000000000000006e-01
	-1.837204519423669e-15
	-1.141592607782225e-18
	-1.252606896258148e-14
	1.697142398747558e-06
	2.344000621105469e-04
	5.277152475259091e-05
	3.611995010021747e-01

 91	9.100000000000006e-01
	-1.830271261056922e-15
	-1.168692238390663e-18
	-1.255932515905851e-14
	1.745661065809444e-06
	2.394617048951367e-04
	5.514065365488002e-05
	3.611997664466984e-01

 92	9.200000000000006e-01
	-1.823573540916099e-15
	-1.196327539191312e-18
	-1.259159733499132e-14
	1.794642787975344e-06
	2.444774136797758e-04
	5.756015703327342e-05
	3.612000376222945e-01

 93	9.300000000000006e-01
	-1.817101784099022e-15
	-1.224508568142399e-18
	-1.262291518562263e-14
	1.844091206314192e-06
	2.494498614536801e-04
	6.002958862009017e-05
	3.612003144677342e-01

 94	9.400000000000006e-01
	-1.810846735582782e-15
	-1.253245622175834e-18
	-1.265330778573413e-14
	1.894011269314893e-06
	2.543818380249529e-04
	6.254852949629316e-05
	3.612005969248895e-01

 95	9.500000000000006e-01
	-1.804799455427024e-15
	-1.282549243432108e-18
	-1.268280357894411e-14
	1.944409199598847e-06
	2.592762092156002e-04
	6.511658905120478e-05
	3.612008849388923e-01

 96	9.600000000000006e-01
	-1.798951313520000e-15
	-1.312430225652931e-18
	-1.271143036942723e-14
	1.995292462332457e-06
	2.641358806105557e-04
	6.773340555710095e-05
	3.612011784582670e-01

 97	9.700000000000006e-01
	-1.793293983925603e-15
	-1.342899620737798e-18
	-1.273921531587684e-14
	2.046669735843068e-06
	2.689637656990816e-04
	7.039864640347061e-05
	3.612014774350045e-01

 98	9.800000000000006e-01
	-1.787819438885610e-15
	-1.373968745470420e-18
	-1.276618492753705e-14
	2.098550884870094e-06
	2.737627581958683e-04
	7.311200803383319e-05
	3.612017818246078e-01

 99	9.900000000000007e-01
	-1.782519942527836e-15
	-1.405649188422206e-18
	-1.279236506213954e-14
	2.150946936818894e-06
	2.785357082923217e-04
	7.587321562569057e-05
	3.612020915860897e-01

 100	1.000000000000001e+00
	-1.777388044327279e-15
	-1.437952817038423e-18
	-1.281778092558759e-14
	2.203870061328248e-06
	2.832854025638259e-04
	7.868202255155375e-05
	3.612024066819521e-01

 101	1.010000000000001e+00
	-1.772416572363626e-15
	-1.470891784915144e-18
	-1.284245707323751e-14
	2.257333553413095e-06
	2.880145472444490e-04
	8.153820965617188e-05
	3.612027270781304e-01

 102	1.020000000000001e+00
	-1.767598626415471e-15
	-1.504478539272864e-18
	-1.286641741263541e-14
	2.311351820402045e-06
	2.927257545747093e-04
	8.444158438216058e-05
	3.612030527439195e-01

 103	1.030000000000001e+00
	-1.762927570928164e-15
	-1.538725828634869e-18
	-1.288968520757446e-14
	2.365940372853982e-06
	2.974215319291356e-04
	8.739197977328922e-05
	3.612033836518843e-01

 104	1.040000000000001e+00
	-1.758397027889201e-15
	-1.573646710717368e-18
	-1.291228308334610e-14
	2.421115819609411e-06
	3.021042734369218e-04
	9.038925338178160e-05
	3.612037197777528e-01

 105	1.050000000000001e+00
	-1.754000869642201e-15
	-1.609254560539336e-18
	-1.293423303306501e-14
	2.476895867109500e-06
	3.067762538197068e-04
	9.343328610316568e-05
	3.612040611002990e-01

 106	1.060000000000001e+00
	-1.749733211667667e-15
	-1.645563078760083e-18
	-1.295555642495583e-14
	2.533299323098863e-06
	3.114396241843510e-04
	9.652398095952116e-05
	3.612044076012123e-01

 107	1.070000000000001e+00
	-1.745588405356237e-15
	-1.682586300252270e-18
	-1.297627401049580e-14
	2.590346104816242e-06
	3.160964095245087e-04
	9.966126184941913e-05
	3.612047592649703e-01

 108	1.080000000000001e+00
	-1.741561030797536e-15
	-1.720338602919363e-18
	-1.299640593331485e-14
	2.648057251770649e-06
	3.207485077021439e-04
	1.028450722804908e-04
	3.612051160786943e-01

 109	1.090000000000001e+00
	-1.737645889605529e-15
	-1.758834716765831e-18
	-1.301597173876106e-14
	2.706454943197662e-06
	3.253976896980871e-04
	1.060753740983398e-04
	3.612054780320173e-01

 110	1.100000000000001e+00
	-1.733837997799049e-15
	-1.798089733229426e-18
	-1.303499038404553e-14
	2.765562520292688e-06
	3.300456009389884e-04
	1.093521462235219e-04
	3.612058451169294e-01

 111	1.110000000000001e+00
	-1.730132578754181e-15
	-1.838119114784117e-18
	-1.305348024888695e-14
	2.825404513322926e-06
	3.346937635259183e-04
	1.126753834064477e-04
	3.612062173276504e-01

 112	1.120000000000001e+00
	-1.726525056243208e-15
	-1.878938704824159e-18
	-1.307145914658210e-14
	2.886006673729261e-06
	3.393435792073804e-04
	1.160450950084390e-04
	3.612065946604804e-01

 113	1.130000000000001e+00
	-1.723011047573234e-15
	-1.920564737838228e-18
	-1.308894433543345e-14
	2.947396011341145e-06
	3.439963329561039e-04
	1.194613038156524e-04
	3.612069771136679e-01

 114	1.140000000000001e+00
	-1.719586356835705e-15
	-1.963013849884521e-18
	-1.310595253047109e-14
	3.009600836843129e-06
	3.486531970247771e-04
	1.229240448912767e-04
	3.612073646872681e-01

 115	1.150000000000001e+00
	-1.716246968276822e-15
	-2.006303089376864e-18
	-1.312249991541062e-14
	3.072650809649882e-06
	3.533152353705525e-04
	1.264333644702227e-04
	3.612077573830183e-01

 116	1.160000000000001e+00
	-1.712989039797218e-15
	-2.050449928192848e-18
	-1.313860215479340e-14
	3.136576991367889e-06
	3.579834083518153e-04
	1.299893188995051e-04
	3.612081552042022e-01

 117	1.170000000000001e+00
	-1.709808896588118e-15
	-2.095472273115211e-18
	-1.315427440626043e-14
	3.201411905045774e-06
	3.626585776131607e-04
	1.335919736265965e-04
	3.612085581555388e-01

 118	1.180000000000001e+00
	-1.706703024909833e-15
	-2.141388477617979e-18
	-1.316953133291500e-14
	3.267189600442540e-06
	3.673415110859851e-04
	1.372414022372808e-04
	3.612089662430513e-01

 119	1.190000000000001e+00
	-1.703668066017742e-15
	-2.188217354009562e-18
	-1.318438711573318e-14
	3.333945725572003e-06
	3.720328880423198e-04
	1.409376855438193e-04
	3.612093794739599e-01

 120	1.200000000000001e+00
	-1.700700810239385e-15
	-2.235978185944888e-18
	-1.319885546598519e-14
	3.401717604815079e-06
	3.767333041488772e-04
	1.446809107237059e-04
	3.612097978565684e-01

 121	1.210000000000001e+00
	-1.697798191205855e-15
	-2.284690741319577e-18
	-1.321294963763405e-14
	3.470544323926736e-06
	3.814432764765052e-04
	1.484711705087698e-04
	3.612102214001658e-01

 122	1.220000000000001e+00
	-1.694957280239641e-15
	-2.334375285559505e-18
	-1.322668243968112e-14
	3.540466822303887e-06
	3.861632484276290e-04
	1.523085624239970e-04
	3.612106501149216e-01

 123	1.230000000000001e+00
	-1.692175280900218e-15
	-2.385052595319279e-18
	-1.324006624843149e-14
	3.611527992922586e-06
	3.908935945507227e-04
	1.561931880750821e-04
	3.612110840117924e-01

 124	1.240000000000001e+00
	-1.689449523688419e-15
	-2.436743972603930e-18
	-1.325311301965440e-14
	3.683772790399321e-06
	3.956346252165461e-04
	1.601251524834506e-04
	3.612115231024320e-01

 125	1.250000000000001e+00
	-1.686777460909490e-15
	-2.489471259328327e-18
	-1.326583430061725e-14
	3.757248347681525e-06
	4.003865911358627e-04
	1.641045634672656e-04
	3.612119673991096e-01

 126	1.260000000000001e+00
	-1.684156661694549e-15
	-2.543256852330388e-18
	-1.327824124197395e-14
	3.832004101927284e-06
	4.051496877026481e-04
	1.681315310667561e-04
	3.612124169146173e-01

 127	1.270000000000001e+00
	-1.681584807179700e-15
	-2.598123718852570e-18
	-1.329034460949019e-14
	3.908091930193419e-06
	4.099240591504496e-04
	1.722061670120350e-04
	3.612128716622108e-01

 128	1.280000000000001e+00
	-1.679059685841230e-15
	-2.654095412508895e-18
	-1.330215479559118e-14
	3.985566295617253e-06
	4.147098025128215e-04
	1.763285842315251e-04
	3.612133316555179e-01

 129	1.290000000000001e+00
	-1.676579188985556e-15
	-2.711196089754252e-18
	-1.331368183071860e-14
	4.064484404847213e-06
	4.195069713812911e-04
	1.804988963989602e-04
	3.612137969084852e-01

 130	1.300000000000001e+00
	-1.674141306391654e-15
	-2.769450526873464e-18
	-1.332493539448570e-14
	4.144906377556435e-06
	4.243155794566907e-04
	1.847172175169500e-04
	3.612142674353016e-01

 131	1.310000000000001e+00
	-1.671744122103800e-15
	-2.828884137508113e-18
	-1.333592482662118e-14
	4.226895428957518e-06
	4.291356038914144e-04
	1.889836615349960e-04
	3.612147432503484e-01

 132	1.320000000000001e+00
	-1.669385810372037e-15
	-2.889522990740791e-18
	-1.334665913769356e-14
	4.310518066331117e-06
	4.339669884217826e-04
	1.932983419998953e-04
	3.612152243681276e-01

 133	1.330000000000001e+00
	-1.667064631737653e-15
	-2.951393829755041e-18
	-1.335714701960988e-14
	4.395844300682234e-06
	4.388096462907780e-04
	1.976613717363972e-04
	3.612157108032232e-01

 134	1.340000000000001e+00
	-1.664778929260634e-15
	-3.014524091092040e-18
	-1.336739685588300e-14
	4.482947874752357e-06
	4.436634629624898e-04
	2.020728625560613e-04
	3.612162025702350e-01

 135	1.350000000000001e+00
	-1.662527124886094e-15
	-3.078941924525941e-18
	-1.337741673166380e-14
	4.571906508738070e-06
	4.485282986301512e-04
	2.065329249922080e-04
	3.612166996837422e-01

 136	1.360000000000001e+00
	-1.660307715946401e-15
	-3.144676213577483e-18
	-1.338721444353473e-14
	4.662802165205083e-06
	4.534039905202721e-04
	2.110416680589365e-04
	3.612172021582491e-01

 137	1.370000000000001e+00
	-1.658119271795675e-15
	-3.211756596690510e-18
	-1.339679750906311e-14
	4.755721334836626e-06
	4.582903549955600e-04
	2.155991990321661e-04
	3.612177100081475e-01

 138	1.380000000000001e+00
	-1.655960430573266e-15
	-3.280213489094196e-18
	-1.340617317611252e-14
	4.850755344822721e-06
	4.631871894595198e-04
	2.202056232507110e-04
	3.612182232476792e-01

 139	1.390000000000001e+00
	-1.653829896092718e-15
	-3.350078105374774e-18
	-1.341534843191217e-14
	4.948000691881838e-06
	4.680942740655930e-04
	2.248610439354286e-04
	3.612187418908867e-01

 140	1.400000000000001e+00
	-1.651726434852846e-15
	-3.421382482783057e-18
	-1.342433001188412e-14
	5.047559402110410e-06
	4.730113732334811e-04
	2.295655620244749e-04
	3.612192659515955e-01

 141	1.410000000000001e+00
	-1.649648873167103e-15
	-3.494159505303835e-18
	-1.343312440822987e-14
	5.149539420084255e-06
	4.779382369751450e-04
	2.343192760227868e-04
	3.612197954433634e-01

 142	1.420000000000001e+00
	-1.647596094408087e-15
	-3.568442928513194e-18
	-1.344173787827707e-14
	5.254055029886923e-06
	4.828746020324286e-04
	2.391222818638626e-04
	3.612203303794619e-01

 143	1.430000000000001e+00
	-1.645567036363341e-15
	-3.644267405254034e-18
	-1.345017645258890e-14
	5.361227311021827e-06
	4.878201928279085e-04
	2.439746727819945e-04
	3.612208707728406e-01

 144	1.440000000000001e+00
	-1.643560688699078e-15
	-3.721668512157655e-18
	-1.345844594283842e-14
	5.471184632476516e-06
	4.927747222298483e-04
	2.488765391930699e-04
	3.612214166361075e-01

 145	1.450000000000001e+00
	-1.641576090528240e-15
	-3.800682777042571e-18
	-1.346655194945053e-14
	5.584063188556348e-06
	4.977378921315595e-04
	2.538279685821088e-04
	3.612219679814888e-01

 146	1.460000000000001e+00
	-1.639612328079670e-15
	-3.881347707221895e-18
	-1.347449986901490e-14
	5.700007580491749e-06
	5.027093938445282e-04
	2.588290453956393e-04
	3.612225248208263e-01

 147	1.470000000000001e+00
	-1.637668532464569e-15
	-3.963701818753182e-18
	-1.348229490147345e-14
	5.819171448258923e-06
	5.076889083039660e-04
	2.638798509370991e-04
	3.612230871655329e-01

 148	1.480000000000001e+00
	-1.635743877537302e-15
	-4.047784666663408e-18
	-1.348994205708593e-14
	5.941718157535816e-06
	5.126761060842375e-04
	2.689804632633180e-04
	3.612236550265880e-01

 149	1.490000000000001e+00
	-1.633837577846954e-15
	-4.133636876186062e-18
	-1.349744616317772e-14
	6.067821547259600e-06
	5.176706472206856e-04
	2.741309570802073e-04
	3.612242284145099e-01

 150	1.500000000000001e+00
	-1.631948886676494e-15
	-4.221300175046637e-18
	-1.350481187067397e-14
	6.197666743857802e-06
	5.226721808330507e-04
	2.793314036356825e-04
	3.612248073393340e-01

 151	1.510000000000001e+00
	-1.630077094166387e-15
	-4.310817426834445e-18
	-1.351204366042445e-14
	6.331451048905705e-06
	5.276803445443393e-04
	2.845818706077956e-04
	3.612253918106002e-01

 152	1.520000000000001e+00
	-1.628221525519474e-15
	-4.402232665502182e-18
	-1.351914584932349e-14
	6.469384907727112e-06
	5.326947636875447e-04
	2.898824219860114e-04
	3.612259818373334e-01

 153	1.530000000000001e+00
	-1.626381539284033e-15
	-4.495591131032560e-18
	-1.352612259622975e-14