Title: ** sch_path: /home/andylithia/openmpw/project-yatsuhashi-chip1/xschem/gmid_test/nmos_test.sch
Date: Tue Jul 19 23:15:45  2022
Plotname: DC transfer characteristic
Flags: real
No. Variables: 8
No. Points: 181
Variables:
	0	v(v-sweep)	voltage
	1	@m.xm1.msky130_fd_pr__nfet_01v8[cgb]	capacitance
	2	@m.xm1.msky130_fd_pr__nfet_01v8[cgd]	capacitance
	3	@m.xm1.msky130_fd_pr__nfet_01v8[cgs]	capacitance
	4	@m.xm1.msky130_fd_pr__nfet_01v8[gds]	admittance
	5	@m.xm1.msky130_fd_pr__nfet_01v8[gm]	admittance
	6	i(@m.xm1.msky130_fd_pr__nfet_01v8[id])	current
	7	v(@m.xm1.msky130_fd_pr__nfet_01v8[vth])	voltage
Values:
 0	0.000000000000000e+00
	-6.007896273786682e-15
	-2.294334907176222e-19
	-8.056313564826703e-15
	6.166194623681386e-09
	2.940936705708030e-07
	3.001537656158741e-08
	2.767977809321840e-01

 1	1.000000000000000e-02
	-5.937162588250351e-15
	-2.360418208085508e-19
	-8.217093218473284e-15
	6.787346583754108e-09
	3.238587476396447e-07
	3.310277896713651e-08
	2.767977812148213e-01

 2	2.000000000000000e-02
	-5.866936545796064e-15
	-2.428221988171078e-19
	-8.378576981005923e-15
	7.468625894352638e-09
	3.565943464891003e-07
	3.650244934148921e-08
	2.767977815261204e-01

 3	3.000000000000000e-02
	-5.797243863439563e-15
	-2.497782647168487e-19
	-8.540683974472040e-15
	8.215498970279241e-09
	3.925972333309156e-07
	4.024555242593353e-08
	2.767977818689630e-01

 4	4.000000000000000e-02
	-5.728110137795996e-15
	-2.569137087911687e-19
	-8.703332301939272e-15
	9.033879927280873e-09
	4.321949333961623e-07
	4.436637169019570e-08
	2.767977822465150e-01

 5	5.000000000000000e-02
	-5.659560779703715e-15
	-2.642322720058679e-19
	-8.866439203068178e-15
	9.930160694170946e-09
	4.757492002736682e-07
	4.890263393170998e-08
	2.767977826622650e-01

 6	6.000000000000000e-02
	-5.591620949630196e-15
	-2.717377464129830e-19
	-9.029921212633915e-15
	1.091124231535831e-08
	5.236599145155546e-07
	5.389587067224252e-08
	2.767977831200614e-01

 7	7.000000000000001e-02
	-5.524315494108066e-15
	-2.794339755881719e-19
	-9.193694321390063e-15
	1.198456738380411e-08
	5.763694647515005e-07
	5.939182090639291e-08
	2.767977836241449e-01

 8	8.000000000000000e-02
	-5.457668883445025e-15
	-2.873248551037159e-19
	-9.357674138653077e-15
	1.315815352767692e-08
	6.343676698142962e-07
	6.544088031509076e-08
	2.767977841791938e-01

 9	9.000000000000000e-02
	-5.391705150945677e-15
	-2.954143330394346e-19
	-9.521776055975915e-15
	1.444062785593479e-08
	6.981973057285790e-07
	7.209860266895047e-08
	2.767977847903744e-01

 10	9.999999999999999e-02
	-5.326447833876021e-15
	-3.037064105336469e-19
	-9.685915411272579e-15
	1.584126224878688e-08
	7.684603067293963e-07
	7.942625981151187e-08
	2.767977854633916e-01

 11	1.100000000000000e-01
	-5.261919916392475e-15
	-3.122051423762371e-19
	-9.850007652752731e-15
	1.737000935857141e-08
	8.458247146011326e-07
	8.749146732989535e-08
	2.767977862045543e-01

 12	1.200000000000000e-01
	-5.198143774646899e-15
	-3.209146376461665e-19
	-1.001396850202775e-14
	1.903753916513883e-08
	9.310324553666268e-07
	9.636888378741449e-08
	2.767977870208378e-01

 13	1.300000000000000e-01
	-5.135141124267496e-15
	-3.298390603952672e-19
	-1.017771411575486e-14
	2.085527590748363e-08
	1.024908026474964e-06
	1.061409922041615e-07
	2.767977879199623e-01

 14	1.400000000000000e-01
	-5.072932970402431e-15
	-3.389826303804765e-19
	-1.034116124519612e-14
	2.283543519029847e-08
	1.128368180855326e-06
	1.168989733200301e-07
	2.767977889104817e-01

 15	1.500000000000000e-01
	-5.011539560498768e-15
	-3.483496238465876e-19
	-1.050422739308325e-14
	2.499106104051204e-08
	1.242432696195873e-06
	1.287436810494104e-07
	2.767977900018782e-01

 16	1.600000000000000e-01
	-4.950980339974148e-15
	-3.579443743613034e-19
	-1.066683096719683e-14
	2.733606266494405e-08
	1.368236318196326e-06
	1.417867314238057e-07
	2.767977912046604e-01

 17	1.700000000000000e-01
	-4.891273910922613e-15
	-3.677712737047060e-19
	-1.082889143008925e-14
	2.988525063617349e-08
	1.507041964906946e-06
	1.561517171996951e-07
	2.767977925305012e-01

 18	1.800000000000000e-01
	-4.832437993978758e-15
	-3.778347728147718e-19
	-1.099032944440739e-14
	3.265437220990265e-08
	1.660255275139048e-06
	1.719755611617887e-07
	2.767977939923600e-01

 19	1.900000000000000e-01
	-4.774489393447042e-15
	-3.881393827909528e-19
	-1.115106701329769e-14
	3.566014545369536e-08
	1.829440576800918e-06
	1.894100219485666e-07
	2.767977956046381e-01

 20	2.000000000000000e-01
	-4.717443965785031e-15
	-3.986896759574194e-19
	-1.131102761540832e-14
	3.892029184436251e-08
	2.016338340339349e-06
	2.086233669353187e-07
	2.767977973833451e-01

 21	2.100000000000000e-01
	-4.661316591510713e-15
	-4.094902869876310e-19
	-1.147013633403732e-14
	4.245356696971834e-08
	2.222884167685291e-06
	2.298022272913187e-07
	2.767977993462944e-01

 22	2.200000000000001e-01
	-4.606121150585761e-15
	-4.205459140920524e-19
	-1.162831998001173e-14
	4.627978895032195e-08
	2.451229347643349e-06
	2.531536507385307e-07
	2.767978015133028e-01

 23	2.300000000000001e-01
	-4.551870501307620e-15
	-4.318613202702956e-19
	-1.178550720792135e-14
	5.041986417840845e-08
	2.703762983967725e-06
	2.789073677294726e-07
	2.767978039064271e-01

 24	2.400000000000001e-01
	-4.498576462725299e-15
	-4.434413346293491e-19
	-1.194162862537106e-14
	5.489580995499174e-08
	2.983135671912496e-06
	3.073182866769653e-07
	2.767978065502275e-01

 25	2.500000000000001e-01
	-4.446249800574953e-15
	-4.552908537694268e-19
	-1.209661689495758e-14
	5.973077359228341e-08
	3.292284662368221e-06
	3.386692334480417e-07
	2.767978094720437e-01

 26	2.600000000000001e-01
	-4.394900216713958e-15
	-4.674148432384507e-19
	-1.225040682871883e-14
	6.494904753765060e-08
	3.634460409439284e-06
	3.732739495144854e-07
	2.767978127023173e-01

 27	2.700000000000001e-01
	-4.344536342014818e-15
	-4.798183390569265e-19
	-1.240293547484765e-14
	7.057608006756330e-08
	4.013254347246453e-06
	4.114803618660752e-07
	2.767978162749394e-01

 28	2.800000000000001e-01
	-4.295165732663430e-15
	-4.925064493141861e-19
	-1.255414219650554e-14
	7.663848109587208e-08
	4.432627684801968e-06
	4.536741359711641e-07
	2.767978202276252e-01

 29	2.900000000000001e-01
	-4.246794869790706e-15
	-5.054843558372234e-19
	-1.270396874261520e-14
	8.316402264056167e-08
	4.896940944160381e-06
	5.002825206443653e-07
	2.767978246023303e-01

 30	3.000000000000001e-01
	-4.199429162351537e-15
	-5.187573159333383e-19
	-1.285235931055412e-14
	9.018163349736509e-08
	5.410983897126721e-06
	5.517784905881323e-07
	2.767978294457103e-01

 31	3.100000000000001e-01
	-4.153072953150990e-15
	-5.323306642078241e-19
	-1.299926060071429e-14
	9.772138767760517e-08
	5.980005480335394e-06
	6.086851885541702e-07
	2.767978348096051e-01

 32	3.200000000000001e-01
	-4.107729527904973e-15
	-5.462098144573013e-19
	-1.314462186293389e-14
	1.058144861817722e-07
	6.609743188582637e-06
	6.715806644714750e-07
	2.767978407515770e-01

 33	3.300000000000001e-01
	-4.063401127210695e-15
	-5.604002616403781e-19
	-1.328839493484763e-14
	1.144932317001057e-07
	7.306451363379692e-06
	7.411029034733090e-07
	2.767978473354712e-01

 34	3.400000000000001e-01
	-4.020088961291878e-15
	-5.749075839259948e-19
	-1.343053427224015e-14
	1.237909958571132e-07
	8.076927709676105e-06
	8.179551285038918e-07
	2.767978546320374e-01

 35	3.500000000000001e-01
	-3.977793227373971e-15
	-5.897374448207924e-19
	-1.357099697152441e-14
	1.337421786490731e-07
	8.928537290917898e-06
	9.029113560985070e-07
	2.767978627195775e-01

 36	3.600000000000002e-01
	-3.936513129536978e-15
	-6.048955953762899e-19
	-1.370974278450100e-14
	1.443821597623943e-07
	9.869233173805473e-06
	9.968221760325969e-07
	2.767978716846339e-01

 37	3.700000000000002e-01
	-3.896246900886332e-15
	-6.203878764768426e-19
	-1.384673412558678e-14
	1.557472415066386e-07
	1.090757282248770e-05
	1.100620716882469e-06
	2.767978816227203e-01

 38	3.800000000000002e-01
	-3.856991827876774e-15
	-6.362202212090716e-19
	-1.398193607173159e-14
	1.678745831494802e-07
	1.205272928103177e-05
	1.215328750221815e-06
	2.767978926390717e-01

 39	3.900000000000002e-01
	-3.818744276620078e-15
	-6.523986573140233e-19
	-1.411531635526822e-14
	1.808021265020216e-07
	1.331449613670195e-05
	1.342062876319833e-06
	2.767979048494405e-01

 40	4.000000000000002e-01
	-3.781499721004017e-15
	-6.689293097225326e-19
	-1.424684534996707e-14
	1.945685126720556e-07
	1.470328522895840e-05
	1.482040723975932e-06
	2.767979183809004e-01

 41	4.100000000000002e-01
	-3.745252772448398e-15
	-6.858184031749858e-19
	-1.437649605058741e-14
	2.092129899801636e-07
	1.623011606430508e-05
	1.636587086729378e-06
	2.767979333726738e-01

 42	4.200000000000002e-01
	-3.709997211123205e-15
	-7.030722649260653e-19
	-1.450424404623745e-14
	2.247753131189659e-07
	1.790659591926890e-05
	1.807139907369264e-06
	2.767979499769723e-01

 43	4.300000000000002e-01
	-3.675726018453968e-15
	-7.206973275357666e-19
	-1.463006748787222e-14
	2.412956337293829e-07
	1.974488966671766e-05
	1.995256012730412e-06
	2.767979683598096e-01

 44	4.400000000000002e-01
	-3.642431410741665e-15
	-7.387001317472372e-19
	-1.475394705027016e-14
	2.588143826689743e-07
	2.175767844775615e-05
	2.202616491516979e-06
	2.767979887018414e-01

 45	4.500000000000002e-01
	-3.610104873725669e-15
	-7.570873294525769e-19
	-1.487586588884369e-14
	2.773721443561560e-07
	2.395810643527017e-05
	2.431031599707575e-06
	2.767980111991335e-01

 46	4.600000000000002e-01
	-3.578737197922988e-15
	-7.758656867476834e-19
	-1.499580959164362e-14
	2.970095236890754e-07
	2.635971509745629e-05
	2.682445071333538e-06
	2.767980360639231e-01

 47	4.700000000000003e-01
	-3.548318514580015e-15
	-7.950420870767498e-19
	-1.511376612692635e-14
	3.177670061588870e-07
	2.897636457097534e-05
	2.958937707482821e-06
	2.767980635252992e-01

 48	4.800000000000003e-01
	-3.518838332078645e-15
	-8.146235344680769e-19
	-1.522972578665397e-14
	3.396848119021610e-07
	3.182214199274804e-05
	3.262730113644833e-06
	2.767980938298183e-01

 49	4.900000000000003e-01
	-3.490285572643981e-15
	-8.346171568617982e-19
	-1.534368112629958e-14
	3.628027445650307e-07
	3.491125691443243e-05
	3.596184455351837e-06
	2.767981272420223e-01

 50	5.000000000000002e-01
	-3.462648609207065e-15
	-8.550302095308993e-19
	-1.545562690132826e-14
	3.871600359802845e-07
	3.825792423005358e-05
	3.961805104824543e-06
	2.767981640448458e-01

 51	5.100000000000002e-01
	-3.435915302282758e-15
	-8.758700785968183e-19
	-1.556556000072121e-14
	4.127951877858081e-07
	4.187623537907573e-05
	4.362238057279885e-06
	2.767982045398885e-01

 52	5.200000000000002e-01
	-3.410073036730258e-15
	-8.971442846407436e-19
	-1.567347937790489e-14
	4.397458112357741e-07
	4.578001893658834e-05
	4.800269004922920e-06
	2.767982490475187e-01

 53	5.300000000000002e-01
	-3.385108758271043e-15
	-9.188604864121519e-19
	-1.577938597944003e-14
	4.680484665721741e-07
	4.998269205969517e-05
	5.278819969551847e-06
	2.767982979068467e-01

 54	5.400000000000003e-01
	-3.361009009646897e-15
	-9.410264846358486e-19
	-1.588328267181724e-14
	4.977385034303940e-07
	5.449710461366203e-05
	5.800944411185371e-06
	2.767983514754517e-01

 55	5.500000000000003e-01
	-3.337759966308878e-15
	-9.636502259191769e-19
	-1.598517416669452e-14
	5.288499038451064e-07
	5.933537814062014e-05
	6.369820750075058e-06
	2.767984101289483e-01

 56	5.600000000000003e-01
	-3.315347471535911e-15
	-9.867398067608834e-19
	-1.608506694490217e-14
	5.614151294988717e-07
	6.450874214478932e-05
	6.988744262690692e-06
	2.767984742602980e-01

 57	5.700000000000003e-01
	-3.293757070890319e-15
	-1.010303477663537e-18
	-1.618296917952639e-14
	5.954649749115398e-07
	7.002737043792878e-05
	7.661117338399603e-06
	2.767985442789096e-01

 58	5.800000000000003e-01
	-3.272974045925405e-15
	-1.034349647350849e-18
	-1.627889065837080e-14
	6.310284283011885e-07
	7.590022050425526e-05
	8.390438112136741e-06
	2.767986206094881e-01

 59	5.900000000000003e-01
	-3.252983447068848e-15
	-1.058886887092306e-18
	-1.637284270607974e-14
	6.681325418536643e-07
	8.213487899337362e-05
	9.180287518768487e-06
	2.767987036906402e-01

 60	6.000000000000003e-01
	-3.233770125613337e-15
	-1.083923935136834e-18
	-1.646483810619286e-14
	7.068023131153567e-07
	8.873741652251839e-05
	1.003431484637626e-05
	2.767987939732244e-01

 61	6.100000000000003e-01
	-3.215318764754173e-15
	-1.109469701257560e-18
	-1.655489102338465e-14
	7.470605791708849e-07
	9.571225495748683e-05
	1.095622189751810e-05
	2.767988919184889e-01

 62	6.200000000000003e-01
	-3.197613909621088e-15
	-1.135533271410023e-18
	-1.664301692612717e-14
	7.889279251827532e-07
	1.030620502397196e-04
	1.194974589879375e-05
	2.767989979959556e-01

 63	6.300000000000003e-01
	-3.180639996259070e-15
	-1.162123912506019e-18
	-1.672923250999808e-14
	8.324226087529851e-07
	1.107875936328925e-04
	1.301864132881875e-05
	2.767991126811027e-01

 64	6.400000000000003e-01
	-3.164381379520328e-15
	-1.189251077305965e-18
	-1.681355562183971e-14
	8.775605014183957e-07
	1.188877339776280e-04
	1.416666086209742e-05
	2.767992364528644e-01

 65	6.500000000000004e-01
	-3.148822359836493e-15
	-1.216924409431403e-18
	-1.689600518495932e-14
	9.243550484127916e-07
	1.273593231726444e-04
	1.539753565038716e-05
	2.767993697909579e-01

 66	6.600000000000004e-01
	-3.133947208846650e-15
	-1.245153748501899e-18
	-1.697660112554410e-14
	9.728172476234173e-07
	1.361971866535949e-04
	1.671495518314421e-05
	2.767995131730881e-01

 67	6.700000000000004e-01
	-3.119740193863249e-15
	-1.273949135397626e-18
	-1.705536430044957e-14
	1.022955648439308e-06
	1.453941201293192e-04
	1.812254698383883e-05
	2.767996670720592e-01

 68	6.800000000000004e-01
	-3.106185601163877e-15
	-1.303320817651821e-18
	-1.713231642650363e-14
	1.074776370940018e-06
	1.549409132743714e-04
	1.962385640874281e-05
	2.767998319528338e-01

 69	6.900000000000004e-01
	-3.093267758102393e-15
	-1.333279254975679e-18
	-1.720748001145429e-14
	1.128283145609849e-06
	1.648264004841356e-04
	2.122232681882429e-05
	2.768000082695705e-01

 70	7.000000000000004e-01
	-3.080971054038272e-15
	-1.363835124919326e-18
	-1.728087828667381e-14
	1.183477373490960e-06
	1.750375381937736e-04
	2.292128039340717e-05
	2.768001964627175e-01

 71	7.100000000000004e-01
	-3.069279960087794e-15
	-1.394999328672359e-18
	-1.735253514171837e-14
	1.240358206415158e-06
	1.855595076646955e-04
	2.472389984624979e-05
	2.768003969561649e-01

 72	7.200000000000004e-01
	-3.058179047705134e-15
	-1.426782997007501e-18
	-1.742247506082848e-14
	1.298922646685007e-06
	1.963758415719732e-04
	2.663321129083266e-05
	2.768006101545273e-01

 73	7.300000000000004e-01
	-3.047653006105711e-15
	-1.459197496371268e-18
	-1.749072306144222e-14
	1.359165665316618e-06
	2.074685722019315e-04
	2.865206848229240e-05
	2.768008364405952e-01

 74	7.400000000000004e-01
	-3.037686658547728e-15
	-1.492254435126221e-18
	-1.755730463478149e-14
	1.421080337715851e-06
	2.188183986079795e-04
	3.078313863915374e-05
	2.768010761729870e-01

 75	7.500000000000004e-01
	-3.028264977491278e-15
	-1.525965669948202e-18
	-1.762224568855879e-14
	1.484657995441651e-06
	2.304048696887275e-04
	3.302889001948310e-05
	2.768013296840379e-01

 76	7.600000000000005e-01
	-3.019373098657474e-15
	-1.560343312383664e-18
	-1.768557249184200e-14
	1.549888392520410e-06
	2.422065798566174e-04
	3.539158139415424e-05
	2.768015972779753e-01

 77	7.700000000000005e-01
	-3.010996334012633e-15
	-1.595399735571616e-18
	-1.774731162210308e-14
	1.616759884618010e-06
	2.542013737650664e-04
	3.787325352551213e-05
	2.768018792293641e-01

 78	7.800000000000005e-01
	-3.003120183705238e-15
	-1.631147581135173e-18
	-1.780748991446730e-14
	1.685259619253595e-06
	2.663665564607934e-04
	4.047572272378706e-05
	2.768021757818997e-01

 79	7.900000000000005e-01
	-2.995730346984942e-15
	-1.667599766247395e-18
	-1.786613441317056e-14
	1.755373735154925e-06
	2.786791053254584e-04
	4.320057651719404e-05
	2.768024871475004e-01

 80	8.000000000000005e-01
	-2.988812732135111e-15
	-1.704769490877353e-18
	-1.792327232522340e-14
	1.827087568808595e-06
	2.911158802626255e-04
	4.604917143565881e-05
	2.768028135057485e-01

 81	8.100000000000005e-01
	-2.982353465451782e-15
	-1.742670245221435e-18
	-1.797893097627264e-14
	1.900385866250231e-06
	3.036538287652341e-04
	4.902263287350283e-05
	2.768031550036729e-01

 82	8.200000000000005e-01
	-2.976338899302811e-15
	-1.781315817326105e-18
	-1.803313776864444e-14
	1.975252998168999e-06
	3.162701827550294e-04
	5.212185696400385e-05
	2.768035117558409e-01

 83	8.300000000000005e-01
	-2.970755619302381e-15
	-1.820720300907718e-18
	-1.808592014154592e-14
	2.051673176463696e-06
	3.289426444062471e-04
	5.534751436921128e-05
	2.768038838447765e-01

 84	8.400000000000005e-01
	-2.965590450636537e-15
	-1.860898103376365e-18
	-1.813730553339606e-14
	2.129630670483064e-06
	3.416495585376832e-04
	5.870005586235619e-05
	2.768042713216858e-01

 85	8.500000000000005e-01
	-2.960830463575796e-15
	-1.901863954068863e-18
	-1.818732134625199e-14
	2.209110021305873e-06
	3.543700695653184e-04
	6.217971955807045e-05
	2.768046742074285e-01

 86	8.600000000000005e-01
	-2.956462978211608e-15
	-1.943632912699597e-18
	-1.823599491229106e-14
	2.290096252562419e-06
	3.670842614370140e-04
	6.578653962768140e-05
	2.768050924937749e-01

 87	8.700000000000006e-01
	-2.952475568452971e-15
	-1.986220378034149e-18
	-1.828335346230550e-14
	2.372575076464787e-06
	3.797732794074522e-04
	6.952035632327637e-05
	2.768055261448617e-01

 88	8.800000000000006e-01
	-2.948856065319993e-15
	-2.029642096794749e-18
	-1.832942409616198e-14
	2.456533093892808e-06
	3.924194329418837e-04
	7.338082712498476e-05
	2.768059750988391e-01

 89	8.900000000000006e-01
	-2.945592559570624e-15
	-2.073914172803470e-18
	-1.837423375517615e-14
	2.541957987571566e-06
	4.050062794496554e-04
	7.736743882089766e-05
	2.768064392696855e-01

 90	9.000000000000006e-01
	-2.942673403696633e-15
	-2.119053076372382e-18
	-1.841780919634793e-14
	2.628838707570795e-06
	4.175186889329980e-04
	8.147952032803393e-05
	2.768069185491435e-01

 91	9.100000000000006e-01
	-2.940087213324184e-15
	-2.165075653947596e-18
	-1.846017696840282e-14
	2.717165648551355e-06
	4.299428899848403e-04
	8.571625606539452e-05
	2.768074128087420e-01

 92	9.200000000000006e-01
	-2.937822868054152e-15
	-2.211999138015950e-18
	-1.850136338958070e-14
	2.806930818375767e-06
	4.422664978756437e-04
	9.007669969606580e-05
	2.768079219018886e-01

 93	9.300000000000006e-01
	-2.935869511776217e-15
	-2.259841157283053e-18
	-1.854139452711362e-14
	2.898127997885535e-06
	4.544785257294044e-04
	9.455978806408647e-05
	2.768084456659910e-01

 94	9.400000000000006e-01
	-2.934216552490219e-15
	-2.308619747131294e-18
	-1.858029617833192e-14
	2.990752891824265e-06
	4.665693800009984e-04
	9.916435516290786e-05
	2.768089839245766e-01

 95	9.500000000000006e-01
	-2.932853661667485e-15
	-2.358353360367104e-18
	-1.861809385333763e-14
	3.084803271050514e-06
	4.785308416306618e-04
	1.038891459852544e-04
	2.768095364894048e-01

 96	9.600000000000006e-01
	-2.931770773183566e-15
	-2.409060878266882e-18
	-1.865481275918377e-14
	3.180279106336422e-06
	4.903560343680522e-04
	1.087328301185958e-04
	2.768101031625136e-01

 97	9.700000000000006e-01
	-2.930958081853319e-15
	-2.460761621931813e-18
	-1.869047778549726e-14
	3.277182694185365e-06
	5.020393818302793e-04
	1.136940149657429e-04
	2.768106837382186e-01

 98	9.800000000000006e-01
	-2.930406041597840e-15
	-2.513475363960820e-18
	-1.872511349148419e-14
	3.375518775225272e-06
	5.135765548895576e-04
	1.187712584859393e-04
	2.768112780050258e-01

 99	9.900000000000007e-01
	-2.930105363271983e-15
	-2.567222340453237e-18
	-1.875874409425578e-14
	3.475294645841693e-06
	5.249644109806362e-04
	1.239630813677661e-04
	2.768118857474380e-01

 100	1.000000000000001e+00
	-2.930047012179909e-15
	-2.622023263350872e-18
	-1.879139345841406e-14
	3.576520263807750e-06
	5.362009268809331e-04
	1.292679785609156e-04
	2.768125067476696e-01

 101	1.010000000000001e+00
	-2.930222205305223e-15
	-2.677899333132150e-18
	-1.882308508683737e-14
	3.679208348747524e-06
	5.472851264524976e-04
	1.346844301091368e-04
	2.768131407872274e-01

 102	1.020000000000001e+00
	-2.930622408280958e-15
	-2.734872251867948e-18
	-1.885384211260613e-14
	3.783374478334561e-06
	5.582170047492824e-04
	1.402109112411045e-04
	2.768137876483835e-01

 103	1.030000000000001e+00
	-2.931239332123692e-15
	-2.792964236653161e-18
	-1.888368729201080e-14
	3.889037181181452e-06
	5.689974497911877e-04
	1.458459016895295e-04
	2.768144471155081e-01

 104	1.040000000000001e+00
	-2.932064929754849e-15
	-2.852198033424931e-18
	-1.891264299858506e-14
	3.996218027418917e-06
	5.796281631921301e-04
	1.515878942212479e-04
	2.768151189762875e-01

 105	1.050000000000001e+00
	-2.933091392331255e-15
	-2.912596931180971e-18
	-1.894073121810826e-14
	4.104941717996808e-06
	5.901115807076952e-04
	1.574354023723137e-04
	2.768158030227977e-01

 106	1.060000000000001e+00
	-2.934311145405802e-15
	-2.974184776611185e-18
	-1.896797354452324e-14
	4.215236173764852e-06
	6.004507936422738e-04
	1.633869673921281e-04
	2.768164990524662e-01

 107	1.070000000000001e+00
	-2.935716844938022e-15
	-3.036985989156486e-18
	-1.899439117671621e-14
	4.327132625410925e-06
	6.106494719295812e-04
	1.694411644094176e-04
	2.768172068688931e-01

 108	1.080000000000001e+00
	-2.937301373173518e-15
	-3.101025576508521e-18
	-1.902000491610773e-14
	4.440665705348930e-06
	6.207117895766229e-04
	1.755966078403610e-04
	2.768179262825761e-01

 109	1.090000000000001e+00
	-2.939057834409608e-15
	-3.166329150565610e-18
	-1.904483516500523e-14
	4.555873542660758e-06
	6.306423530422380e-04
	1.818519560655029e-04
	2.768186571115004e-01

 110	1.100000000000001e+00
	-2.940979550664243e-15
	-3.232922943860024e-18
	-1.906890192566866e-14
	4.672797862206051e-06
	6.404461330085961e-04
	1.882059154071843e-04
	2.768193991816245e-01

 111	1.110000000000001e+00
	-2.943060057263681e-15
	-3.300833826471744e-18
	-1.909222480004333e-14
	4.791484089023455e-06
	6.501283998992763e-04
	1.946572434432936e-04
	2.768201523272795e-01

 112	1.120000000000001e+00
	-2.945293098363736e-15
	-3.370089323446379e-18
	-1.911482299011518e-14
	4.911981459158130e-06
	6.596946634015818e-04
	2.012047516961901e-04
	2.768209163914569e-01

 113	1.130000000000001e+00
	-2.947672622418334e-15
	-3.440717632732719e-18
	-1.913671529884562e-14
	5.034343138063020e-06
	6.691506161639583e-04
	2.078473077377710e-04
	2.768216912260165e-01

 114	1.140000000000001e+00
	-2.950192777608362e-15
	-3.512747643658307e-18
	-1.915792013164465e-14
	5.158626347738333e-06
	6.785020817622976e-04
	2.145838367529644e-04
	2.768224766918165e-01

 115	1.150000000000001e+00
	-2.952847907242710e-15
	-3.586208955961676e-18
	-1.917845549834293e-14
	5.284892503795594e-06
	6.877549669614112e-04
	2.214133226045422e-04
	2.768232726587602e-01

 116	1.160000000000001e+00
	-2.955632545142898e-15
	-3.661131899398394e-18
	-1.919833901562496e-14
	5.413207363659193e-06
	6.969152182396273e-04
	2.283348084420621e-04
	2.768240790057993e-01

 117	1.170000000000001e+00
	-2.958541411021385e-15
	-3.737547553942277e-18
	-1.921758790988719e-14
	5.543641187154086e-06
	7.059887824953919e-04
	2.353473968972359e-04
	2.768248956208556e-01

 118	1.180000000000001e+00
	-2.961569405863359e-15
	-3.815487770601269e-18
	-1.923621902048684e-14
	5.676268910769553e-06
	7.149815718137368e-04
	2.424502499069404e-04
	2.768257224007000e-01

 119	1.190000000000001e+00
	-2.964711607320823e-15
	-3.894985192868510e-18
	-1.925424880334837e-14
	5.811170336941001e-06
	7.238994321374893e-04
	2.496425882037198e-04
	2.768265592507893e-01

 120	1.200000000000001e+00
	-2.967963265127173e-15
	-3.976073278830905e-18
	-1.927169333489653e-14
	5.948430339753090e-06
	7.327481156621596e-04
	2.569236905119352e-04
	2.768274060850616e-01

 121	1.210000000000001e+00
	-2.971319796539628e-15
	-4.058786323957676e-18
	-1.928856831628627e-14
	6.088139088540398e-06
	7.415332567538857e-04
	2.642928924858066e-04
	2.768282628256959e-01

 122	1.220000000000001e+00
	-2.974776781816485e-15
	-4.143159484592198e-18
	-1.930488907790153e-14
	6.230392290946514e-06
	7.502603511759732e-04
	2.717495854235113e-04
	2.768291294028413e-01

 123	1.230000000000001e+00
	-2.978329959735430e-15
	-4.229228802170944e-18
	-1.932067058409584e-14
	6.375291457100483e-06
	7.589347384006391e-04
	2.792932147892872e-04
	2.768300057543328e-01

 124	1.240000000000001e+00
	-2.981975223158480e-15
	-4.317031228195233e-18
	-1.933592743815011e-14
	6.522944186683365e-06
	7.675615867781221e-04
	2.869232785732802e-04
	2.768308918253734e-01

 125	1.250000000000001e+00
	-2.985708614648729e-15
	-4.406604649981557e-18
	-1.935067388742332e-14
	6.673464480785309e-06
	7.761458813342450e-04
	2.946393255165226e-04
	2.768317875682139e-01

 126	1.260000000000001e+00
	-2.989526322143542e-15
	-4.497987917217478e-18
	-1.936492382867373e-14
	6.826973080601189e-06
	7.846924139698154e-04
	3.024409532262110e-04
	2.768326929418127e-01

 127	1.270000000000001e+00
	-2.993424674688231e-15
	-4.591220869350564e-18
	-1.937869081352962e-14
	6.983597835177526e-06
	7.932057758397877e-04
	3.103278062041591e-04
	2.768336079114951e-01

 128	1.280000000000001e+00
	-2.997400138233912e-15
	-4.686344363841172e-18
	-1.939198805408940e-14
	7.143474100610426e-06
	8.016903516968439e-04
	3.182995738091458e-04
	2.768345324485986e-01

 129	1.290000000000001e+00
	-3.001449311502798e-15
	-4.783400305306345e-18
	-1.940482842863261e-14
	7.306745173303650e-06
	8.101503159922062e-04
	3.263559881717424e-04
	2.768354665301258e-01

 130	1.300000000000001e+00
	-3.005568921923657e-15
	-4.882431675589231e-18
	-1.941722448742397e-14
	7.473562760130869e-06
	8.185896305359213e-04
	3.344968220781984e-04
	2.768364101383858e-01

 131	1.310000000000001e+00
	-3.009755821640087e-15
	-4.983482564783574e-18
	-1.942918845859439e-14
	7.644087488608641e-06
	8.270120435289728e-04
	3.427218868380044e-04
	2.768373632606561e-01

 132	1.320000000000001e+00
	-3.014006983593399e-15
	-5.086598203249571e-18
	-1.944073225408324e-14
	7.818489460481262e-06
	8.354210897903811e-04
	3.510310301479862e-04
	2.768383258888246e-01

 133	1.330000000000001e+00
	-3.018319497682117e-15
	-5.191824994653324e-18
	-1.945186747562786e-14
	7.996948852445118e-06
	8.438200920132615e-04
	3.594241339639966e-04
	2.768392980190545e-01

 134	1.340000000000001e+00
	-3.022690566999545e-15
	-5.299210550068637e-18
	-1.946260542078657e-14
	8.179656568106955e-06
	8.522121628948886e-04
	3.679011123897260e-04
	2.768402796514561e-01

 135	1.350000000000001e+00
	-3.027117504150348e-15
	-5.408803723176428e-18
	-1.947295708898308e-14
	8.366814945678256e-06
	8.606002079966415e-04
	3.764619095906425e-04
	2.768412707897517e-01

 136	1.360000000000001e+00
	-3.031597727647297e-15
	-5.520654646603371e-18
	-1.948293318756059e-14
	8.558638526361798e-06
	8.689869292001599e-04
	3.851064977396544e-04
	2.768422714409678e-01

 137	1.370000000000001e+00
	-3.036128758388744e-15
	-5.634814769437487e-18
	-1.949254413783482e-14
	8.755354888894771e-06
	8.773748286362383e-04
	3.938348749998501e-04
	2.768432816151262e-01

 138	1.380000000000001e+00
	-3.040708216217201e-15
	-5.751336895964789e-18
	-1.950180008113623e-14
	8.957205556277221e-06
	8.857662129725305e-04
	4.026470635484479e-04
	2.768443013249491e-01

 139	1.390000000000001e+00
	-3.045333816559267e-15
	-5.870275225669702e-18
	-1.951071088483227e-14
	9.164446981346642e-06
	8.941631979551768e-04
	4.115431076450289e-04
	2.768453305855669e-01

 140	1.400000000000001e+00
	-3.050003367147092e-15
	-5.991685394545223e-18
	-1.951928614832099e-14
	9.377351618561506e-06
	9.025677131076834e-04
	4.205230717460536e-04
	2.768463694142553e-01

 141	1.410000000000001e+00
	-3.054714764820944e-15
	-6.115624517758702e-18
	-1.952753520898872e-14
	9.596209090145438e-06
	9.109815064982468e-04
	4.295870386668377e-04
	2.768474178301678e-01

 142	1.420000000000001e+00
	-3.059465992412710e-15
	-6.242151233724039e-18
	-1.953546714812441e-14
	9.821327455619857e-06
	9.194061494934502e-04
	4.387351077912284e-04
	2.768484758540745e-01

 143	1.430000000000001e+00
	-3.064255115710009e-15
	-6.371325749628904e-18
	-1.954309079678428e-14
	1.005303459473468e-05
	9.278430414224415e-04
	4.479673933284374e-04
	2.768495435081366e-01

 144	1.440000000000001e+00
	-3.069080280499984e-15
	-6.503209888471750e-18
	-1.955041474160102e-14
	1.029167971490681e-05
	9.362934140812181e-04
	4.572840226158206e-04
	2.768506208156665e-01

 145	1.450000000000001e+00
	-3.073939709692425e-15
	-6.637867137661128e-18
	-1.955744733053189e-14
	1.053763499550316e-05
	9.447583360111135e-04
	4.666851344656352e-04
	2.768517078009151e-01

 146	1.460000000000001e+00
	-3.078831700520976e-15
	-6.775362699237770e-18
	-1.956419667854147e-14
	1.079129738268437e-05
	9.532387164895459e-04
	4.761708775532498e-04
	2.768528044888487e-01

 147	1.470000000000001e+00
	-3.083754621822001e-15
	-6.915763541773762e-18
	-1.957067067321406e-14
	1.105309055006562e-05
	9.617353091738662e-04
	4.857414088435466e-04
	2.768539109049706e-01

 148	1.480000000000001e+00
	-3.088706911389579e-15
	-7.059138454014663e-18
	-1.957687698029229e-14
	1.132346704218747e-05
	9.702487153417640e-04
	4.953968920518765e-04
	2.768550270751168e-01

 149	1.490000000000001e+00
	-3.093687073405787e-15
	-7.205558100326236e-18
	-1.958282304913865e-14
	1.160291061972842e-05
	9.787793866726791e-04
	5.051374961351760e-04
	2.768561530252717e-01

 150	1.500000000000001e+00
	-3.098693675945159e-15
	-7.355095078012014e-18
	-1.958851611811624e-14
	1.189193882757662e-05
	9.873276275154427e-04
	5.149633938083977e-04
	2.768572887814013e-01

 151	1.510000000000001e+00
	-3.103725348551885e-15
	-7.507823976571427e-18
	-1.959396321988691e-14
	1.219110580933146e-05
	9.958935965870769e-04
	5.248747600808618e-04
	2.768584343692834e-01

 152	1.520000000000001e+00
	-3.108780779888554e-15
	-7.663821438970866e-18
	-1.959917118662379e-14
	1.250100539456604e-05
	1.004477308046476e-03
	5.348717708065744e-04
	2.768595898143404e-01

 153	1.530000000000001e+00
	-3.113858715455087e-15
	-7.823166224999770e-18
	-1.960414665513674e-14