Title: ** sch_path: /home/andylithia/openmpw/project-yatsuhashi-chip1/xschem/gmid_test/nmos_test.sch
Date: Sun Jul 17 22:51:45  2022
Plotname: DC transfer characteristic
Flags: real
No. Variables: 8
No. Points: 181
Variables:
	0	v(v-sweep)	voltage
	1	@m.xm1.msky130_fd_pr__nfet_01v8[cgb]	capacitance
	2	@m.xm1.msky130_fd_pr__nfet_01v8[cgd]	capacitance
	3	@m.xm1.msky130_fd_pr__nfet_01v8[cgs]	capacitance
	4	@m.xm1.msky130_fd_pr__nfet_01v8[gds]	admittance
	5	@m.xm1.msky130_fd_pr__nfet_01v8[gm]	admittance
	6	i(@m.xm1.msky130_fd_pr__nfet_01v8[id])	current
	7	v(@m.xm1.msky130_fd_pr__nfet_01v8[vth])	voltage
Values:
 0	0.000000000000000e+00
	-5.755854308592177e-15
	-1.619838899839024e-18
	-8.437260694515385e-15
	3.162547035951305e-08
	1.102944342891853e-06
	1.247416686048303e-07
	2.671333686526424e-01

 1	1.000000000000000e-02
	-5.692022034073765e-15
	-1.667094075389704e-18
	-8.582744149635833e-15
	3.447176709949203e-08
	1.203610532863952e-06
	1.362671486151415e-07
	2.671333699568013e-01

 2	2.000000000000000e-02
	-5.628792582692707e-15
	-1.715721777611279e-18
	-8.728569061612981e-15
	3.756403642528015e-08
	1.313421714515886e-06
	1.488443417433177e-07
	2.671333713799694e-01

 3	3.000000000000000e-02
	-5.566184229932814e-15
	-1.765761601827511e-18
	-8.874673816716318e-15
	4.092225153749225e-08
	1.433223999108056e-06
	1.625688625289889e-07
	2.671333729329678e-01

 4	4.000000000000000e-02
	-5.504215033690028e-15
	-1.817254314806084e-18
	-9.020996415457114e-15
	4.456785382255257e-08
	1.563946559330258e-06
	1.775451948226934e-07
	2.671333746276191e-01

 5	5.000000000000000e-02
	-5.442902793919793e-15
	-1.870241892917771e-18
	-9.167474569236618e-15
	4.852384352530921e-08
	1.706610603264910e-06
	1.938875664372445e-07
	2.671333764768528e-01

 6	6.000000000000000e-02
	-5.382265013177155e-15
	-1.924767561725021e-18
	-9.314045797794488e-15
	5.281487423524440e-08
	1.862339395428920e-06
	2.117209186777677e-07
	2.671333784948031e-01

 7	7.000000000000001e-02
	-5.322318858167967e-15
	-1.980875837059054e-18
	-9.460647527151158e-15
	5.746735117702700e-08
	2.032369444201446e-06
	2.311819818084852e-07
	2.671333806969499e-01

 8	8.000000000000000e-02
	-5.263081122425607e-15
	-2.038612567647476e-18
	-9.607217187737216e-15
	6.250953327934711e-08
	2.218062985797517e-06
	2.524204687615055e-07
	2.671333831002313e-01

 9	9.000000000000000e-02
	-5.204568190223583e-15
	-2.098024979356285e-18
	-9.753692312399021e-15
	6.797163897830941e-08
	2.420921906086513e-06
	2.756004007496484e-07
	2.671333857232142e-01

 10	9.999999999999999e-02
	-5.146796001829406e-15
	-2.159161721114054e-18
	-9.900010633972649e-15
	7.388595569352822e-08
	2.642603252829120e-06
	3.009015799148767e-07
	2.671333885862444e-01

 11	1.100000000000000e-01
	-5.089780020199514e-15
	-2.222072912588003e-18
	-1.004611018211834e-14
	8.028695289634315e-08
	2.884936502107740e-06
	3.285212257254316e-07
	2.671333917116422e-01

 12	1.200000000000000e-01
	-5.033535199209337e-15
	-2.286810193685687e-18
	-1.019192937911236e-14
	8.721139867068071e-08
	3.149942753613642e-06
	3.586757935273858e-07
	2.671333951239084e-01

 13	1.300000000000000e-01
	-4.978075953505643e-15
	-2.353426775958929e-18
	-1.033740713429817e-14
	9.469847964803637e-08
	3.439856039725420e-06
	3.916029954547939e-07
	2.671333988499431e-01

 14	1.400000000000000e-01
	-4.923416130061772e-15
	-2.421977495989669e-18
	-1.048248293690500e-14
	1.027899241790785e-07
	3.757146942611290e-06
	4.275640457991025e-07
	2.671334029193119e-01

 15	1.500000000000000e-01
	-4.869568981508691e-15
	-2.492518870841977e-18
	-1.062709694695101e-14
	1.115301285857800e-07
	4.104548721497195e-06
	4.668461549216958e-07
	2.671334073645228e-01

 16	1.600000000000000e-01
	-4.816547141307001e-15
	-2.565109155667238e-18
	-1.077119008395760e-14
	1.209662863198241e-07
	4.485086158273426e-06
	5.097652978463684e-07
	2.671334122213392e-01

 17	1.700000000000000e-01
	-4.764362600817431e-15
	-2.639808403554461e-18
	-1.091470411321223e-14
	1.311485198356338e-07
	4.902107333214291e-06
	5.566692857702618e-07
	2.671334175291273e-01

 18	1.800000000000000e-01
	-4.713026688318455e-15
	-2.716678527720680e-18
	-1.105758172932999e-14
	1.421300149699243e-07
	5.359318543129222e-06
	6.079411708546364e-07
	2.671334233312452e-01

 19	1.900000000000000e-01
	-4.662550050011662e-15
	-2.795783366142108e-18
	-1.119976663687763e-14
	1.539671576044021e-07
	5.860822571053032e-06
	6.640030167670655e-07
	2.671334296754662e-01

 20	2.000000000000000e-01
	-4.612942633046558e-15
	-2.877188748730306e-18
	-1.134120362783847e-14
	1.667196723742869e-07
	6.411160508842856e-06
	7.253200695023386e-07
	2.671334366144538e-01

 21	2.100000000000000e-01
	-4.564213670588129e-15
	-2.960962567163067e-18
	-1.148183865571202e-14
	1.804507631730244e-07
	7.015357320945930e-06
	7.924053649618325e-07
	2.671334442062803e-01

 22	2.200000000000001e-01
	-4.516371668941387e-15
	-3.047174847484077e-18
	-1.162161890605950e-14
	1.952272551929970e-07
	7.678971318230063e-06
	8.658248115615297e-07
	2.671334525150060e-01

 23	2.300000000000001e-01
	-4.469424396738800e-15
	-3.135897825591917e-18
	-1.176049286332298e-14
	2.111197382334452e-07
	8.408147684176513e-06
	9.462027877002942e-07
	2.671334616113096e-01

 24	2.400000000000001e-01
	-4.423378876187791e-15
	-3.227206025743255e-18
	-1.189841037376434e-14
	2.282027110003852e-07
	9.209676160929203e-06
	1.034228295174970e-06
	2.671334715731883e-01

 25	2.500000000000001e-01
	-4.378241376367017e-15
	-3.321176342202136e-18
	-1.203532270438887e-14
	2.465547261192216e-07
	1.009105295866106e-05
	1.130661710490362e-06
	2.671334824867230e-01

 26	2.600000000000001e-01
	-4.334017408552159e-15
	-3.417888124172725e-18
	-1.217118259773668e-14
	2.662585355791096e-07
	1.106054689744548e-05
	1.236342176382634e-06
	2.671334944469105e-01

 27	2.700000000000001e-01
	-4.290711723543776e-15
	-3.517423264159225e-18
	-1.230594432244494e-14
	2.874012363291764e-07
	1.212726972532460e-05
	1.352195675646599e-06
	2.671335075585815e-01

 28	2.800000000000001e-01
	-4.248328310962259e-15
	-3.619866289904788e-18
	-1.243956371950242e-14
	3.100744157505553e-07
	1.330125047863154e-05
	1.479243828414370e-06
	2.671335219374026e-01

 29	2.900000000000001e-01
	-4.206870400467684e-15
	-3.725304460067397e-18
	-1.257199824413819e-14
	3.343742967350523e-07
	1.459351366003705e-05
	1.618613452248857e-06
	2.671335377109428e-01

 30	3.000000000000001e-01
	-4.166340464855346e-15
	-3.833827863797209e-18
	-1.270320700330383e-14
	3.604018821110850e-07
	1.601616090558355e-05
	1.771546921656823e-06
	2.671335550198695e-01

 31	3.100000000000001e-01
	-4.126740224971304e-15
	-3.945529524391324e-18
	-1.283315078872937e-14
	3.882630981710065e-07
	1.758245569371033e-05
	1.939413359756774e-06
	2.671335740191975e-01

 32	3.200000000000001e-01
	-4.088070656386318e-15
	-4.060505507206412e-18
	-1.296179210554970e-14
	4.180689370704300e-07
	1.930691051673986e-05
	2.123720689710408e-06
	2.671335948796625e-01

 33	3.300000000000001e-01
	-4.050331997761064e-15
	-4.178855032020634e-18
	-1.308909519651761e-14
	4.499355978907522e-07
	2.120537578866499e-05
	2.326128567005200e-06
	2.671336177891925e-01

 34	3.400000000000001e-01
	-4.013523760830068e-15
	-4.300680590045656e-18
	-1.321502606183682e-14
	4.839846261804487e-07
	2.329512960287843e-05
	2.548462205618480e-06
	2.671336429544566e-01

 35	3.500000000000001e-01
	-3.977644741928096e-15
	-4.426088065797879e-18
	-1.333955247466387e-14
	5.203430518189428e-07
	2.559496728072634e-05
	2.792727101367830e-06
	2.671336706025523e-01

 36	3.600000000000002e-01
	-3.942693034977756e-15
	-4.555186864050096e-18
	-1.346264399234604e-14
	5.591435250801429e-07
	2.812528946805975e-05
	3.061124644245791e-06
	2.671337009827672e-01

 37	3.700000000000002e-01
	-3.908666045854398e-15
	-4.688090042093927e-18
	-1.358427196347556e-14
	6.005244508100483e-07
	3.090818734443194e-05
	3.356068598142564e-06
	2.671337343684410e-01

 38	3.800000000000002e-01
	-3.875560508041179e-15
	-4.824914447556206e-18
	-1.370440953085546e-14
	6.446301206756006e-07
	3.396752331116539e-05
	3.680202411009202e-06
	2.671337710589344e-01

 39	3.900000000000002e-01
	-3.843372499484777e-15
	-4.965780862022937e-18
	-1.382303163048598e-14
	6.916108434900569e-07
	3.732900532379952e-05
	4.036417301163681e-06
	2.671338113816804e-01

 40	4.000000000000002e-01
	-3.812097460560504e-15
	-5.110814150738864e-18
	-1.394011498669220e-14
	7.416230736738665e-07
	4.102025283582466e-05
	4.427871046089208e-06
	2.671338556943064e-01

 41	4.100000000000002e-01
	-3.781730213054176e-15
	-5.260143418661690e-18
	-1.405563810352525e-14
	7.948295379699149e-07
	4.507085212934131e-05
	4.858007378766988e-06
	2.671339043868322e-01

 42	4.200000000000002e-01
	-3.752264980067609e-15
	-5.413902173165325e-18
	-1.416958125257885e-14
	8.513993605982818e-07
	4.951239863039459e-05
	5.330575873427120e-06
	2.671339578839356e-01

 43	4.300000000000002e-01
	-3.723695406753763e-15
	-5.572228493701776e-18
	-1.428192645737325e-14
	9.115081871089449e-07
	5.437852364904149e-05
	5.849652177759788e-06
	2.671340166472336e-01

 44	4.400000000000002e-01
	-3.696014581788415e-15
	-5.735265208743831e-18
	-1.439265747446521e-14
	9.753383072707832e-07
	5.970490285421982e-05
	6.419658422339597e-06
	2.671340811775998e-01

 45	4.500000000000002e-01
	-3.669215059485358e-15
	-5.903160080349933e-18
	-1.450175977145048e-14
	1.043078777422811e-06
	6.552924369939533e-05
	7.045383610603392e-06
	2.671341520174703e-01

 46	4.600000000000002e-01
	-3.643288882463703e-15
	-6.076065996707286e-18
	-1.460922050203008e-14
	1.114925542808343e-06
	7.189124896531598e-05
	7.732003764581869e-06
	2.671342297531351e-01

 47	4.700000000000003e-01
	-3.618227604776807e-15
	-6.254141173027785e-18
	-1.471502847831741e-14
	1.191081560514942e-06
	7.883255358988284e-05
	8.485101573211767e-06
	2.671343150169644e-01

 48	4.800000000000003e-01
	-3.594022315414795e-15
	-6.437549361190955e-18
	-1.481917414056555e-14
	1.271756923752306e-06
	8.639663202097262e-05
	9.310685262024202e-06
	2.671344084895303e-01

 49	4.900000000000003e-01
	-3.570663662094477e-15
	-6.626460068544368e-18
	-1.492164952449737e-14
	1.357168988315976e-06
	9.462867346452495e-05
	1.021520637597870e-05
	2.671345109016410e-01

 50	5.000000000000002e-01
	-3.548141875253176e-15
	-6.821048786297091e-18
	-1.502244822642233e-14
	1.447542502206997e-06
	1.035754226152534e-04
	1.120557614194934e-05
	2.671346230361852e-01

 51	5.100000000000002e-01
	-3.526446792165814e-15
	-7.021497227959075e-18
	-1.512156536632429e-14
	1.543109739504315e-06
	1.132849837576127e-04
	1.228918005467539e-05
	2.671347457297836e-01

 52	5.200000000000002e-01
	-3.505567881107660e-15
	-7.227993578304889e-18
	-1.521899754910427e-14
	1.644110639717348e-06
	1.238065865155168e-04
	1.347389031075907e-05
	2.671348798741932e-01

 53	5.300000000000002e-01
	-3.485494265488436e-15
	-7.440732753361144e-18
	-1.531474282416100e-14
	1.750792953978427e-06
	1.351903120139562e-04
	1.476807570044288e-05
	2.671350264174276e-01

 54	5.400000000000003e-01
	-3.466214747887126e-15
	-7.659916671945126e-18
	-1.540880064348924e-14
	1.863412399567050e-06
	1.474867787950424e-04
	1.618060855738062e-05
	2.671351863645500e-01

 55	5.500000000000003e-01
	-3.447717833920200e-15
	-7.885754539305947e-18
	-1.550117181847438e-14
	1.982232824387382e-06
	1.607467885030763e-04
	1.772086836336989e-05
	2.671353607780586e-01

 56	5.600000000000003e-01
	-3.429991755880161e-15
	-8.118463143446888e-18
	-1.559185847555654e-14
	2.107526383143403e-06
	1.750209321126529e-04
	1.939874160892999e-05
	2.671355507778849e-01

 57	5.700000000000003e-01
	-3.413024496084892e-15
	-8.358267164738293e-18
	-1.568086401093435e-14
	2.239573727071098e-06
	1.903591583119116e-04
	2.122461752254983e-05
	2.671357575408898e-01

 58	5.800000000000003e-01
	-3.396803809882336e-15
	-8.605399499458874e-18
	-1.576819304447348e-14
	2.378664209188011e-06
	2.068103065569001e-04
	2.320937930208711e-05
	2.671359822998813e-01

 59	5.900000000000003e-01
	-3.381317248259058e-15
	-8.860101597937619e-18
	-1.585385137297948e-14
	2.525096107105677e-06
	2.244216082662635e-04
	2.536439051178243e-05
	2.671362263420494e-01

 60	6.000000000000003e-01
	-3.366552180005347e-15
	-9.122623817998479e-18
	-1.593784592298877e-14
	2.679176865513527e-06
	2.432381606074349e-04
	2.770147634802430e-05
	2.671364910068476e-01

 61	6.100000000000003e-01
	-3.352495813393383e-15
	-9.393225794449928e-18
	-1.602018470322548e-14
	2.841223360482095e-06
	2.633023783122765e-04
	3.023289952655984e-05
	2.671367776832567e-01

 62	6.200000000000003e-01
	-3.339135217328875e-15
	-9.672176825396025e-18
	-1.610087675686562e-14
	3.011562187743102e-06
	2.846534299242803e-04
	3.297133060318526e-05
	2.671370878064036e-01

 63	6.300000000000003e-01
	-3.326457341940974e-15
	-9.959756276185386e-18
	-1.617993211374259e-14
	3.190529977080768e-06
	3.073266657910470e-04
	3.592981260868712e-05
	2.671374228535646e-01

 64	6.400000000000003e-01
	-3.314449038578370e-15
	-1.025625400185818e-17
	-1.625736174262204e-14
	3.378473734911460e-06
	3.313530459434104e-04
	3.912171995628845e-05
	2.671377843394930e-01

 65	6.500000000000004e-01
	-3.303097079184024e-15
	-1.056197078899333e-17
	-1.633317750366591e-14
	3.575751217032300e-06
	3.567585767135750e-04
	4.256071166502587e-05
	2.671381738111176e-01

 66	6.600000000000004e-01
	-3.292388175024001e-15
	-1.087721881790508e-17
	-1.640739210119924e-14
	3.782731333385901e-06
	3.835637655074088e-04
	4.626067903406530e-05
	2.671385928416178e-01

 67	6.700000000000004e-01
	-3.282308994749787e-15
	-1.120232214619010e-17
	-1.648001903688554e-14
	3.999794586515898e-06
	4.117831035302384e-04
	5.023568799927985e-05
	2.671390430238798e-01

 68	6.800000000000004e-01
	-3.272846181776714e-15
	-1.153761721467420e-17
	-1.655107256340919e-14
	4.227333545179133e-06
	4.414245864442311e-04
	5.449991650254480e-05
	2.671395259634121e-01

 69	6.900000000000004e-01
	-3.263986370964392e-15
	-1.188345337686652e-17
	-1.662056763875663e-14
	4.465753354339413e-06
	4.724892828863795e-04
	5.906758730399014e-05
	2.671400432707269e-01

 70	7.000000000000004e-01
	-3.255716204588162e-15
	-1.224019345308673e-17
	-1.668851988118042e-14
	4.715472282498337e-06
	5.049709604825331e-04
	6.395289676548998e-05
	2.671405965532804e-01

 71	7.100000000000004e-01
	-3.248022347593640e-15
	-1.260821431049223e-17
	-1.675494552492359e-14
	4.976922307030209e-06
	5.388557784456140e-04
	6.916994022749479e-05
	2.671411874070196e-01

 72	7.200000000000004e-01
	-3.240891502128881e-15
	-1.298790747030010e-17
	-1.681986137677482e-14
	5.250549737886826e-06
	5.741220550434241e-04
	7.473263468832971e-05
	2.671418174076315e-01

 73	7.300000000000004e-01
	-3.234310421351848e-15
	-1.337967974356344e-17
	-1.688328477351802e-14
	5.536815879737582e-06
	6.107401171709742e-04
	8.065463957281220e-05
	2.671424881015775e-01

 74	7.400000000000004e-01
	-3.228265922512726e-15
	-1.378395389694106e-17
	-1.694523354033403e-14
	5.836197732319787e-06
	6.486722379800989e-04
	8.694927644303045e-05
	2.671432009970066e-01

 75	7.500000000000004e-01
	-3.222744899313453e-15
	-1.420116934997683e-17
	-1.700572595020500e-14
	6.149188728508824e-06
	6.878726670309309e-04
	9.362944855621731e-05
	2.671439575546423e-01

 76	7.600000000000005e-01
	-3.217734333548625e-15
	-1.463178290547836e-17
	-1.706478068436681e-14
	6.476299509389514e-06
	7.282877557693268e-04
	1.007075612109191e-04
	2.671447591787878e-01

 77	7.700000000000005e-01
	-3.213221306034023e-15
	-1.507626951468640e-17
	-1.712241679384854e-14
	6.818058735434557e-06
	7.698561793433016e-04
	1.081954438416264e-04
	2.671456072085067e-01

 78	7.800000000000005e-01
	-3.209193006830690e-15
	-1.553512307900819e-17
	-1.717865366213296e-14
	7.175013932783994e-06
	8.125092538974503e-04
	1.161042748225829e-04
	2.671465029091034e-01

 79	7.900000000000005e-01
	-3.205636744774527e-15
	-1.600885729018317e-17
	-1.723351096896580e-14
	7.547732373584686e-06
	8.561713465797286e-04
	1.244445099230790e-04
	2.671474474640470e-01

 80	8.000000000000005e-01
	-3.202539956322178e-15
	-1.649800651086308e-17
	-1.728700865533783e-14
	7.936801989402778e-06
	9.007603736150273e-04
	1.332258153191914e-04
	2.671484419673849e-01

 81	8.100000000000005e-01
	-3.199890213726046e-15
	-1.700312669768415e-17
	-1.733916688965756e-14
	8.342832316869276e-06
	9.461883799996560e-04
	1.424570060110741e-04
	2.671494874167741e-01

 82	8.200000000000005e-01
	-3.197675232551948e-15
	-1.752479636903063e-17
	-1.739000603512908e-14
	8.766455474969285e-06
	9.923621927044337e-04
	1.521459904217368e-04
	2.671505847072208e-01

 83	8.300000000000005e-01
	-3.195882878554265e-15
	-1.806361761980148e-17
	-1.743954661834413e-14
	9.208327173737992e-06
	1.039184137790840e-03
	1.622997218642733e-04
	2.671517346255843e-01

 84	8.400000000000005e-01
	-3.194501173924238e-15
	-1.862021718563009e-17
	-1.748780929909435e-14
	9.669127754583058e-06
	1.086552810588621e-03
	1.729241574618471e-04
	2.671529378459278e-01

 85	8.500000000000005e-01
	-3.193518302927906e-15
	-1.919524755911964e-17
	-1.753481484140524e-14
	1.014956326300696e-05
	1.134363887090093e-03
	1.840242249908358e-04
	2.671541949257696e-01

 86	8.600000000000005e-01
	-3.192922616950820e-15
	-1.978938816081768e-17
	-1.758058408578982e-14
	1.065036655514903e-05
	1.182510964013078e-03
	1.956037979951826e-04
	2.671555063032630e-01

 87	8.700000000000006e-01
	-3.192702638967267e-15
	-2.040334656778120e-17
	-1.762513792271698e-14
	1.117229844029228e-05
	1.230886414587240e-03
	2.076656793921728e-04
	2.671568722953394e-01

 88	8.800000000000006e-01
	-3.192847067452166e-15
	-2.103785980274568e-17
	-1.766849726728564e-14
	1.171614886227404e-05
	1.279382247033693e-03
	2.202115936596845e-04
	2.671582930968296e-01

 89	8.900000000000006e-01
	-3.193344779754034e-15
	-2.169369568707425e-17
	-1.771068303509369e-14
	1.228273812358391e-05
	1.327890952930166e-03
	2.332421875655213e-04
	2.671597687805327e-01

 90	9.000000000000006e-01
	-3.194184834947842e-15
	-2.237165426082003e-17
	-1.775171611928733e-14
	1.287291815681209e-05
	1.376306333168594e-03
	2.467570392737447e-04
	2.671612992982495e-01

 91	9.100000000000006e-01
	-3.195356476186604e-15
	-2.307256927342579e-17
	-1.779161736877395e-14
	1.348757384900833e-05
	1.424524289994964e-03
	2.607546755438288e-04
	2.671628844827331e-01

 92	9.200000000000006e-01
	-3.196849132570537e-15
	-2.379730974875935e-17
	-1.783040756757977e-14
	1.412762442540751e-05
	1.472443574639869e-03
	2.752325966283940e-04
	2.671645240504980e-01

 93	9.300000000000006e-01
	-3.198652420552699e-15
	-2.454678162838223e-17
	-1.786810741533095e-14
	1.479402489985633e-05
	1.519966481264322e-03
	2.901873083765093e-04
	2.671662176054569e-01

 94	9.400000000000006e-01
	-3.200756144899859e-15
	-2.532192949714925e-17
	-1.790473750883477e-14
	1.548776760012056e-05
	1.566999479316008e-03
	3.056143609637556e-04
	2.671679646432940e-01

 95	9.500000000000006e-01
	-3.203150299227199e-15
	-2.612373839544973e-17
	-1.794031832473625e-14
	1.620988377704865e-05
	1.613453777870160e-03
	3.215083935987377e-04
	2.671697645565413e-01

 96	9.600000000000006e-01
	-3.205825066125045e-15
	-2.695323572262610e-17
	-1.797487020322354e-14
	1.696144530730938e-05
	1.659245817071347e-03
	3.378631844994691e-04
	2.671716166402220e-01

 97	9.700000000000006e-01
	-3.208770816895662e-15
	-2.781149323633177e-17
	-1.800841333275427e-14
	1.774356650009191e-05
	1.704297683350999e-03
	3.546717053922261e-04
	2.671735200980284e-01

 98	9.800000000000006e-01
	-3.211978110917718e-15
	-2.869962915283898e-17
	-1.804096773577369e-14
	1.855740601875928e-05
	1.748537446629192e-03
	3.719261797602174e-04
	2.671754740489125e-01

 99	9.900000000000007e-01
	-3.215437694655558e-15
	-2.961881035355540e-17
	-1.807255325539449e-14
	1.940416892897312e-05
	1.791899419178653e-03
	3.896181440591484e-04
	2.671774775340197e-01

 100	1.000000000000001e+00
	-3.219140500329871e-15
	-3.057025470327656e-17
	-1.810318954300721e-14
	2.028510888526497e-05
	1.834324337201207e-03
	4.077385111207665e-04
	2.671795295238686e-01

 101	1.010000000000001e+00
	-3.223077644266064e-15
	-3.155523348597151e-17
	-1.813289604678967e-14
	2.120153046841490e-05
	1.875759467414024e-03
	4.262776349825005e-04
	2.671816289256960e-01

 102	1.020000000000001e+00
	-3.227240424935708e-15
	-3.257507396419396e-17
	-1.816169200108282e-14
	2.215479168632757e-05
	1.916158642044124e-03
	4.452253764101496e-04
	2.671837745908721e-01

 103	1.030000000000001e+00
	-3.231620320706123e-15
	-3.363116206849599e-17
	-1.818959641660073e-14
	2.314630665136731e-05
	1.955482226569328e-03
	4.645711684195155e-04
	2.671859653223257e-01

 104	1.040000000000001e+00
	-3.236208987312464e-15
	-3.472494522354482e-17
	-1.821662807144140e-14
	2.417754844734933e-05
	1.993697025314194e-03
	4.843040811504084e-04
	2.671881998818950e-01

 105	1.050000000000001e+00
	-3.240998255065859e-15
	-3.585793531795681e-17
	-1.824280550286523e-14
	2.525005219958847e-05
	2.030776130607336e-03
	5.044128855007877e-04
	2.671904769975235e-01

 106	1.060000000000001e+00
	-3.245980125810721e-15
	-3.703171182518623e-17
	-1.826814699980839e-14
	2.636541836158952e-05
	2.066698721634178e-03
	5.248861149881241e-04
	2.671927953702861e-01

 107	1.070000000000001e+00
	-3.251146769643355e-15
	-3.824792508317227e-17
	-1.829267059609773e-14
	2.752531623215395e-05
	2.101449819385294e-03
	5.457121253680435e-04
	2.671951536811236e-01

 108	1.080000000000001e+00
	-3.256490521403653e-15
	-3.950829974077195e-17
	-1.831639406433430e-14
	2.873148771686034e-05
	2.135020004213682e-03
	5.668791516048561e-04
	2.671975505973105e-01

 109	1.090000000000001e+00
	-3.262003876950455e-15
	-4.081463837939533e-17
	-1.833933491041332e-14
	2.998575134809469e-05
	2.167405102491236e-03
	5.883753618538204e-04
	2.671999847785600e-01

 110	1.100000000000001e+00
	-3.267679489230991e-15
	-4.216882531861091e-17
	-1.836151036864786e-14
	3.129000657804020e-05
	2.198605848709081e-03
	6.101889081791079e-04
	2.672024548827723e-01

 111	1.110000000000001e+00
	-3.273510164153609e-15
	-4.357283061488416e-17
	-1.838293739746497e-14
	3.264623835931915e-05
	2.228627529117433e-03
	6.323079737937331e-04
	2.672049595713923e-01

 112	1.120000000000001e+00
	-3.279488856272380e-15
	-4.502871426299362e-17
	-1.840363267564269e-14
	3.405652202830136e-05
	2.257479612665408e-03
	6.547208166669756e-04
	2.672074975143351e-01

 113	1.130000000000001e+00
	-3.285608664291832e-15
	-4.653863061005162e-17
	-1.842361259905736e-14
	3.552302850645783e-05
	2.285175374597374e-03
	6.774158094002912e-04
	2.672100673945181e-01

 114	1.140000000000001e+00
	-3.291862826398568e-15
	-4.810483299248012e-17
	-1.844289327791124e-14
	3.704802983556782e-05
	2.311731517608857e-03
	7.003814753240954e-04
	2.672126679119360e-01

 115	1.150000000000001e+00
	-3.298244715426733e-15
	-4.972967860664974e-17
	-1.846149053441076e-14
	3.863390506304195e-05
	2.337167794975587e-03
	7.236065208141455e-04
	2.672152977873341e-01

 116	1.160000000000001e+00
	-3.304747833862611e-15
	-5.141563362432637e-17
	-1.847941990086714e-14
	4.028314649414638e-05
	2.361506639561604e-03
	7.470798638679170e-04
	2.672179557654287e-01

 117	1.170000000000001e+00
	-3.311365808693948e-15
	-5.316527856443077e-17
	-1.849669661819069e-14
	4.199836632844336e-05
	2.384772802097008e-03
	7.707906590175835e-04
	2.672206406177481e-01

 118	1.180000000000001e+00
	-3.318092386107990e-15
	-5.498131393301994e-17
	-1.851333563475214e-14
	4.378230369834978e-05
	2.406993001607181e-03
	7.947283186876616e-04
	2.672233511450324e-01

 119	1.190000000000001e+00
	-3.324921426042298e-15
	-5.686656614375880e-17
	-1.852935160558396e-14
	4.563783212827611e-05
	2.428195590380039e-03
	8.188825311314012e-04
	2.672260861792826e-01

 120	1.200000000000001e+00
	-3.331846896591202e-15
	-5.882399373151931e-17
	-1.854475889189605e-14
	4.756796743339706e-05
	2.448410235386885e-03
	8.432432751016291e-04
	2.672288445854049e-01

 121	1.210000000000001e+00
	-3.338862868270709e-15
	-6.085669387205936e-17
	-1.855957156088059e-14
	4.957587607762625e-05
	2.467667617629021e-03
	8.678008314283655e-04
	2.672316252625317e-01

 122	1.220000000000001e+00
	-3.345963508143465e-15
	-6.296790922105840e-17
	-1.857380338578197e-14
	5.166488401086401e-05
	2.485999150473750e-03
	8.925457916882843e-04
	2.672344271450020e-01

 123	1.230000000000001e+00
	-3.353143073805418e-15
	-6.516103508604204e-17
	-1.858746784620771e-14
	5.383848600597140e-05
	2.503436717670624e-03
	9.174690641596845e-04
	2.672372492030326e-01

 124	1.240000000000001e+00
	-3.360395907234822e-15
	-6.743962694495674e-17
	-1.860057812865807e-14
	5.610035551618958e-05
	2.520012431404940e-03
	9.425618772617918e-04
	2.672400904431089e-01

 125	1.250000000000001e+00
	-3.367716428504138e-15
	-6.980740832532942e-17
	-1.861314712725162e-14
	5.845435507382001e-05
	2.535758410450552e-03
	9.678157806792392e-04
	2.672429499081134e-01

 126	1.260000000000001e+00
	-3.375099129354583e-15
	-7.226827905805999e-17
	-1.862518744462573e-14
	6.090454725085685e-05
	2.550706578228149e-03
	9.932226443718573e-04
	2.672458266772080e-01

 127	1.270000000000001e+00
	-3.382538566632939e-15
	-7.482632391991257e-17
	-1.863671139299104e-14
	6.345520620185717e-05
	2.564888480356714e-03
	1.018774655666777e-03
	2.672487198655045e-01

 128	1.280000000000001e+00
	-3.390029355589996e-15
	-7.748582167871836e-17
	-1.864773099531967e-14
	6.611082980858426e-05
	2.578335121103551e-03
	1.044464314624742e-03
	2.672516286235498e-01

 129	1.290000000000001e+00
	-3.397566163039105e-15
	-8.025125455517428e-17
	-1.865825798664799e-14
	6.887615244480683e-05
	2.591076817990306e-03
	1.070284427865928e-03
	2.672545521366134e-01

 130	1.300000000000001e+00
	-3.405143700373953e-15
	-8.312731811478070e-17
	-1.866830381547499e-14
	7.175615837793704e-05
	2.603143073694738e-03
	1.096228101032295e-03
	2.672574896238356e-01

 131	1.310000000000001e+00
	-3.412756716443875e-15
	-8.611893160308879e-17
	-1.867787964523808e-14
	7.475609582191934e-05
	2.614562464300234e-03
	1.122288730054584e-03
	2.672604403372451e-01

 132	1.320000000000001e+00
	-3.420399990285289e-15
	-8.923124873683012e-17
	-1.868699635584867e-14
	7.788149165277987e-05
	2.625362542882563e-03
	1.148459991382253e-03
	2.672634035606467e-01

 133	1.330000000000001e+00
	-3.428068323707531e-15
	-9.246966896273112e-17
	-1.869566454527096e-14
	8.113816679437158e-05
	2.635569757383932e-03
	1.174735831324205e-03
	2.672663786084118e-01

 134	1.340000000000001e+00
	-3.435756533731998e-15
	-9.583984919483971e-17
	-1.870389453112689e-14
	8.453225227699877e-05
	2.645209381705578e-03
	1.201110454637672e-03
	2.672693648241911e-01

 135	1.350000000000001e+00
	-3.443459444883164e-15
	-9.934771603999091e-17
	-1.871169635231216e-14
	8.807020596558488e-05
	2.654305458948971e-03
	1.227578312491872e-03
	2.672723615795479e-01

 136	1.360000000000001e+00
	-3.451171881330721e-15
	-1.029994785195411e-16
	-1.871907977060775e-14
	9.175882994665826e-05
	2.662880755749559e-03
	1.254134089922411e-03
	2.672753682725362e-01

 137	1.370000000000001e+00
	-3.458888658882629e-15
	-1.068016412937224e-16
	-1.872605427227214e-14
	9.560528855449272e-05
	2.670956726673913e-03
	1.280772692881987e-03
	2.672783843262356e-01

 138	1.380000000000001e+00
	-3.466604576829084e-15
	-1.107610183928484e-16
	-1.873262906960075e-14
	9.961712700600001e-05
	2.678553487688920e-03
	1.307489234982835e-03
	2.672814091872525e-01

 139	1.390000000000001e+00
	-3.474314409638712e-15
	-1.148847474571020e-16
	-1.873881310243851e-14
	1.038022906011790e-04
	2.685689797758330e-03
	1.334279024016760e-03
	2.672844423241874e-01

 140	1.400000000000001e+00
	-3.482012898508881e-15
	-1.191803044836839e-16
	-1.874461503963327e-14
	1.081691444307681e-04
	2.692383047675731e-03
	1.361137548329271e-03
	2.672874832260945e-01

 141	1.410000000000001e+00
	-3.489694742773424e-15
	-1.236555190767482e-16
	-1.875004328041730e-14
	1.127264935149752e-04
	2.698649255303059e-03
	1.388060463115885e-03
	2.672905314009290e-01

 142	1.420000000000001e+00
	-3.497354591172341e-15
	-1.283185901915772e-16
	-1.875510595570580e-14
	1.174836032763512e-04
	2.704503066447940e-03
	1.415043576700598e-03
	2.672935863739969e-01

 143	1.430000000000001e+00
	-3.504987032989676e-15
	-1.331781023600268e-16
	-1.875981092930112e-14
	1.224502202257580e-04
	2.709957760681391e-03
	1.442082836849281e-03
	2.672966476864000e-01

 144	1.440000000000001e+00
	-3.512586589067672e-15
	-1.382430423790620e-16
	-1.876416579899296e-14
	1.276365927124913e-04
	2.715025261467865e-03
	1.469174317164004e-03
	2.672997148935003e-01

 145	1.450000000000001e+00
	-3.520147702707518e-15
	-1.435228164385061e-16
	-1.876817789754473e-14
	1.330534915576728e-04
	2.719716150052946e-03
	1.496314203598628e-03
	2.673027875633791e-01

 146	1.460000000000001e+00
	-3.527664730469622e-15
	-1.490272676574191e-16
	-1.877185429355780e-14
	1.387122303534539e-04
	2.724039682627741e-03
	1.523498781130416e-03
	2.673058652753513e-01

 147	1.470000000000001e+00
	-3.535131932888579e-15
	-1.547666939913126e-16
	-1.877520179220617e-14
	1.446246851692943e-04
	2.728003810365640e-03
	1.550724420618604e-03
	2.673089476184599e-01

 148	1.480000000000001e+00
	-3.542543465121919e-15
	-1.607518664640093e-16
	-1.877822693583462e-14
	1.508033133598247e-04
	2.731615202002787e-03
	1.577987565876635e-03
	2.673120341900126e-01

 149	1.490000000000001e+00
	-3.549893367554979e-15
	-1.669940476688114e-16
	-1.878093600441503e-14
	1.572611711166358e-04
	2.734879268711297e-03
	1.605284720982160e-03
	2.673151245941548e-01

 150	1.500000000000001e+00
	-3.557175556387901e-15
	-1.735050104734762e-16
	-1.878333501585666e-14
	1.640119293483591e-04
	2.737800191092197e-03
	1.632612437846863e-03
	2.673182184404495e-01

 151	1.510000000000001e+00
	-3.564383814235758e-15
	-1.802970568520946e-16
	-1.878542972616721e-14
	1.710698874094254e-04
	2.740380948192899e-03
	1.659967304066551e-03
	2.673213153425177e-01

 152	1.520000000000001e+00
	-3.571511780777034e-15
	-1.873830367547261e-16
	-1.878722562946341e-14
	1.784499841281947e-04
	2.742623348533092e-03
	1.687345931071800e-03
	2.673244149166800e-01

 153	1.530000000000001e+00
	-3.578552943491685e-15
	-1.947763669118705e-16
	-1.878872795783116e-14