Title: ** sch_path: /home/andylithia/openmpw/project-yatsuhashi-chip1/xschem/gmid_test/nmos_test.sch
Date: Sun Jul 17 22:51:45  2022
Plotname: DC transfer characteristic
Flags: real
No. Variables: 8
No. Points: 181
Variables:
	0	v(v-sweep)	voltage
	1	@m.xm1.msky130_fd_pr__nfet_01v8[cgb]	capacitance
	2	@m.xm1.msky130_fd_pr__nfet_01v8[cgd]	capacitance
	3	@m.xm1.msky130_fd_pr__nfet_01v8[cgs]	capacitance
	4	@m.xm1.msky130_fd_pr__nfet_01v8[gds]	admittance
	5	@m.xm1.msky130_fd_pr__nfet_01v8[gm]	admittance
	6	i(@m.xm1.msky130_fd_pr__nfet_01v8[id])	current
	7	v(@m.xm1.msky130_fd_pr__nfet_01v8[vth])	voltage
Values:
 0	0.000000000000000e+00
	-6.603081020367599e-15
	-2.102206408653664e-18
	-1.033184556716905e-14
	1.333381001333806e-08
	4.831290947325174e-07
	5.418969169281975e-08
	2.447726766899278e-01

 1	1.000000000000000e-02
	-6.527219866628369e-15
	-2.164087780805716e-18
	-1.050671486415362e-14
	1.453590456762336e-08
	5.277309310491785e-07
	5.924070710647850e-08
	2.447726772795009e-01

 2	2.000000000000000e-02
	-6.452099222495290e-15
	-2.227791554338578e-18
	-1.068185889997372e-14
	1.584162032651190e-08
	5.764577697329143e-07
	6.475805392517740e-08
	2.447726779235088e-01

 3	3.000000000000000e-02
	-6.377741096787320e-15
	-2.293371658806617e-18
	-1.085720196383773e-14
	1.725929205468240e-08
	6.297024711412507e-07
	7.078491474918328e-08
	2.447726786269915e-01

 4	4.000000000000000e-02
	-6.304167144875589e-15
	-2.360883682772941e-18
	-1.103266810939603e-14
	1.879785363966788e-08
	6.878980071089919e-07
	7.736859779925934e-08
	2.447726793954699e-01

 5	5.000000000000000e-02
	-6.231398620926037e-15
	-2.430384929994555e-18
	-1.120818127619170e-14
	2.046687319248368e-08
	7.515219465340453e-07
	8.456096004198299e-08
	2.447726802350018e-01

 6	6.000000000000000e-02
	-6.159456331516409e-15
	-2.501934477765207e-18
	-1.138366541132063e-14
	2.227658938058513e-08
	8.211014673843064e-07
	9.241887775671572e-08
	2.447726811522231e-01

 7	7.000000000000001e-02
	-6.088360590768063e-15
	-2.575593237507574e-18
	-1.155904459090874e-14
	2.423794895593412e-08
	8.972189526122130e-07
	1.010047700920250e-07
	2.447726821544191e-01

 8	8.000000000000000e-02
	-6.018131177126228e-15
	-2.651424017711304e-18
	-1.173424314101642e-14
	2.636264543211009e-08
	9.805182319716433e-07
	1.103871817568009e-07
	2.447726832495968e-01

 9	9.000000000000000e-02
	-5.948787291915854e-15
	-2.729491589317882e-18
	-1.190918575758256e-14
	2.866315885525653e-08
	1.071711536184442e-06
	1.206414316335929e-07
	2.447726844465455e-01

 10	9.999999999999999e-02
	-5.880347519792485e-15
	-2.809862753657344e-18
	-1.208379762502447e-14
	3.115279660425692e-08
	1.171587234195837e-06
	1.318503347877294e-07
	2.447726857549339e-01

 11	1.100000000000000e-01
	-5.812829791199115e-15
	-2.892606413047386e-18
	-1.225800453311859e-14
	3.384573514601390e-08
	1.281018428264880e-06
	1.441050060735582e-07
	2.447726871854000e-01

 12	1.200000000000000e-01
	-5.746251346931439e-15
	-2.977793644170722e-18
	-1.243173299179439e-14
	3.675706266206703e-08
	1.400972485206747e-06
	1.575057543048160e-07
	2.447726887496557e-01

 13	1.300000000000000e-01
	-5.680628704904163e-15
	-3.065497774351034e-18
	-1.260491034348591e-14
	3.990282245316492e-08
	1.532521585065944e-06
	1.721630767546834e-07
	2.447726904605978e-01

 14	1.400000000000000e-01
	-5.615977629201572e-15
	-3.155794460854795e-18
	-1.277746487269645e-14
	4.330005701885559e-08
	1.676854370652632e-06
	1.881987645753266e-07
	2.447726923324509e-01

 15	1.500000000000000e-01
	-5.552313101484878e-15
	-3.248761773351410e-18
	-1.294932591244905e-14
	4.696685269981267e-08
	1.835288782493266e-06
	2.057471305676527e-07
	2.447726943808910e-01

 16	1.600000000000000e-01
	-5.489649294818857e-15
	-3.344480279669916e-18
	-1.312042394730813e-14
	5.092238476146718e-08
	2.009286163574419e-06
	2.249563715776073e-07
	2.447726966232223e-01

 17	1.700000000000000e-01
	-5.427999549968875e-15
	-3.443033134998876e-18
	-1.329069071267860e-14
	5.518696278882962e-08
	2.200466716519323e-06
	2.459900786319962e-07
	2.447726990785467e-01

 18	1.800000000000000e-01
	-5.367376354208982e-15
	-3.544506174681197e-18
	-1.346005929010562e-14
	5.978207625403913e-08
	2.410626392217661e-06
	2.690289087365547e-07
	2.447727017679549e-01

 19	1.900000000000000e-01
	-5.307791322670412e-15
	-3.648988010763172e-18
	-1.362846419831909e-14
	6.473044011047810e-08
	2.641755283104701e-06
	2.942724330220161e-07
	2.447727047147506e-01

 20	2.000000000000000e-01
	-5.249255182248673e-15
	-3.756570132465648e-18
	-1.379584147978905e-14
	7.005604026017279e-08
	2.896057585902999e-06
	3.219411766161251e-07
	2.447727079446839e-01

 21	2.100000000000000e-01
	-5.191777758076788e-15
	-3.867347010752849e-18
	-1.396212878257936e-14
	7.578417873487432e-08
	3.175973187332446e-06
	3.522788662135556e-07
	2.447727114862130e-01

 22	2.200000000000001e-01
	-5.135367962561004e-15
	-3.981416207181198e-18
	-1.412726543731107e-14
	8.194151842568683e-08
	3.484200911687312e-06
	3.855549017804106e-07
	2.447727153707926e-01

 23	2.300000000000001e-01
	-5.080033786964735e-15
	-4.098878487222229e-18
	-1.429119252906997e-14
	8.855612719157516e-08
	3.823723450895519e-06
	4.220670691305514e-07
	2.447727196331989e-01

 24	2.400000000000001e-01
	-5.025782295516276e-15
	-4.219837938260803e-18
	-1.445385296411786e-14
	9.565752117358413e-08
	4.197833975348738e-06
	4.621445102088306e-07
	2.447727243118655e-01

 25	2.500000000000001e-01
	-4.972619622005456e-15
	-4.344402092479788e-18
	-1.461519153129024e-14
	1.032767071392366e-07
	4.610164397073673e-06
	5.061509677689166e-07
	2.447727294492681e-01

 26	2.600000000000001e-01
	-4.920550968825105e-15
	-4.472682054854605e-18
	-1.477515495798897e-14
	1.114462236805664e-07
	5.064715225399235e-06
	5.544883206958390e-07
	2.447727350923350e-01

 27	2.700000000000001e-01
	-4.869580608403747e-15
	-4.604792636487949e-18
	-1.493369196070194e-14
	1.202001810895675e-07
	5.565886918897988e-06
	6.076004254466502e-07
	2.447727412929050e-01

 28	2.800000000000001e-01
	-4.819711886967238e-15
	-4.740852493532047e-18
	-1.509075329000700e-14
	1.295742997368173e-07
	6.118512595863579e-06
	6.659772779168518e-07
	2.447727481081974e-01

 29	2.900000000000001e-01
	-4.770947230559255e-15
	-4.880984271951222e-18
	-1.524629177003980e-14
	1.396059467826114e-07
	6.727891918827051e-06
	7.301595084324291e-07
	2.447727556013565e-01

 30	3.000000000000001e-01
	-4.723288153242298e-15
	-5.025314758396709e-18
	-1.540026233243110e-14
	1.503341710556035e-07
	7.399825916648148e-06
	8.007432204666804e-07
	2.447727638419916e-01

 31	3.100000000000001e-01
	-4.676735267394933e-15
	-5.173975037472408e-18
	-1.555262204473794e-14
	1.617997359414717e-07
	8.140652450688264e-06
	8.783851810337255e-07
	2.447727729068160e-01

 32	3.200000000000001e-01
	-4.631288296013520e-15
	-5.327100655690940e-18
	-1.570333013341973e-14
	1.740451501343264e-07
	8.957281969832019e-06
	9.638083674707999e-07
	2.447727828802676e-01

 33	3.300000000000001e-01
	-4.586946086922043e-15
	-5.484831792427846e-18
	-1.585234800142710e-14
	1.871146961160381e-07
	9.857233133162773e-06
	1.057807871440411e-06
	2.447727938552138e-01

 34	3.400000000000001e-01
	-4.543706628788293e-15
	-5.647313438202246e-18
	-1.599963924049355e-14
	2.010544562443161e-07
	1.084866780968050e-05
	1.161257156426508e-06
	2.447728059336717e-01

 35	3.500000000000001e-01
	-4.501567068840195e-15
	-5.814695580624424e-18
	-1.614516963823868e-14
	2.159123363491183e-07
	1.194042489252742e-05
	1.275114659732867e-06
	2.447728192275958e-01

 36	3.600000000000002e-01
	-4.460523732172989e-15
	-5.987133398371915e-18
	-1.628890718020882e-14
	2.317380867594543e-07
	1.314205229200824e-05
	1.400430724000112e-06
	2.447728338596735e-01

 37	3.700000000000002e-01
	-4.420572142534818e-15
	-6.164787463570952e-18
	-1.643082204699756e-14
	2.485833207090979e-07
	1.446383639874738e-05
	1.538354836532968e-06
	2.447728499641749e-01

 38	3.800000000000002e-01
	-4.381707044476001e-15
	-6.347823952979562e-18
	-1.657088660660402e-14
	2.665015301007273e-07
	1.591682823741708e-05
	1.690143147284165e-06
	2.447728676878410e-01

 39	3.900000000000002e-01
	-4.343922426746040e-15
	-6.536414868390190e-18
	-1.670907540220032e-14
	2.855480986441183e-07
	1.751286546465830e-05
	1.857166228205935e-06
	2.447728871907695e-01

 40	4.000000000000002e-01
	-4.307211546821466e-15
	-6.730738266689333e-18
	-1.684536513549135e-14
	3.057803124254573e-07
	1.926458930442793e-05
	2.040917027904933e-06
	2.447729086473718e-01

 41	4.100000000000002e-01
	-4.271566956447077e-15
	-6.930978500034314e-18
	-1.697973464586243e-14
	3.272573680127128e-07
	2.118545546265479e-05
	2.243018966202906e-06
	2.447729322472988e-01

 42	4.200000000000002e-01
	-4.236980528074030e-15
	-7.137326466631483e-18
	-1.711216488551836e-14
	3.500403782562803e-07
	2.328973802352427e-05
	2.465234103412096e-06
	2.447729581964008e-01

 43	4.300000000000002e-01
	-4.203443482078884e-15
	-7.349979872624113e-18
	-1.724263889082590e-14
	3.741923760059198e-07
	2.559252530492339e-05
	2.709471309018905e-06
	2.447729867176863e-01

 44	4.400000000000002e-01
	-4.170946414649064e-15
	-7.569143505623911e-18
	-1.737114175007926e-14
	3.997783160346634e-07
	2.810970664358188e-05
	2.977794344191987e-06
	2.447730180522607e-01

 45	4.500000000000002e-01
	-4.139479326222687e-15
	-7.795029520449003e-18
	-1.749766056791187e-14
	4.268650755384489e-07
	3.085794909427178e-05
	3.272429762284772e-06
	2.447730524602601e-01

 46	4.600000000000002e-01
	-4.109031650372585e-15
	-8.027857737659319e-18
	-1.762218442658324e-14
	4.555214536675771e-07
	3.385466306502906e-05
	3.595774521513126e-06
	2.447730902217259e-01

 47	4.700000000000003e-01
	-4.079592283027775e-15
	-8.267855955510083e-18
	-1.774470434437090e-14
	4.858181706426582e-07
	3.711795597441024e-05
	3.950403194503586e-06
	2.447731316374555e-01

 48	4.800000000000003e-01
	-4.051149611928603e-15
	-8.515260275976993e-18
	-1.786521323129986e-14
	5.178278671145654e-07
	4.066657310968255e-05
	4.339074650708633e-06
	2.447731770297841e-01

 49	4.900000000000003e-01
	-4.023691546215659e-15
	-8.770315445541472e-18
	-1.798370584244140e-14
	5.516251045448041e-07
	4.451982498838715e-05
	4.764738080066392e-06
	2.447732267432835e-01

 50	5.000000000000002e-01
	-3.997205546056253e-15
	-9.033275211458108e-18
	-1.810017872901253e-14
	5.872863675100833e-07
	4.869750068111970e-05
	5.230538220058267e-06
	2.447732811453775e-01

 51	5.100000000000002e-01
	-3.971678652216854e-15
	-9.304402694265443e-18
	-1.821463018750504e-14
	6.248900689727511e-07
	5.321976674105174e-05
	5.739819643811430e-06
	2.447733406268366e-01

 52	5.200000000000002e-01
	-3.947097515493960e-15
	-9.583970777341260e-18
	-1.832706020706999e-14
	6.645165597068097e-07
	5.810705160511098e-05
	6.296129964423090e-06
	2.447734056021516e-01

 53	5.300000000000002e-01
	-3.923448425920869e-15
	-9.872262514342648e-18
	-1.843747041537965e-14
	7.062481432272450e-07
	6.337991558125693e-05
	6.903221810561541e-06
	2.447734765097634e-01

 54	5.400000000000003e-01
	-3.900717341672450e-15
	-1.016957155541974e-17
	-1.854586402318378e-14
	7.501690977378091e-07
	6.905890681314827e-05
	7.565053430913801e-06
	2.447735538121388e-01

 55	5.500000000000003e-01
	-3.878889917594826e-15
	-1.047620259313504e-17
	-1.865224576777169e-14
	7.963657067881414e-07
	7.516440391367803e-05
	8.285787790454408e-06
	2.447736379956492e-01

 56	5.600000000000003e-01
	-3.857951533292175e-15
	-1.079247182907088e-17
	-1.875662185554514e-14
	8.449263005145570e-07
	8.171644627706443e-05
	9.069790030012614e-06
	2.447737295702841e-01

 57	5.700000000000003e-01
	-3.837887320707704e-15
	-1.111870746215825e-17
	-1.885899990389971e-14
	8.959413095284231e-07
	8.873455340891042e-05
	9.921623172367023e-06
	2.447738290691396e-01

 58	5.800000000000003e-01
	-3.818682191140758e-15
	-1.145525019981741e-17
	-1.895938888260567e-14
	9.495033337105782e-07
	9.623753494715035e-05
	1.084604197317025e-05
	2.447739370477011e-01

 59	5.900000000000003e-01
	-3.800320861647466e-15
	-1.180245379305697e-17
	-1.905779905487047e-14
	1.005707228368158e-06
	1.042432933753917e-04
	1.184798483340219e-05
	2.447740540828922e-01

 60	6.000000000000003e-01
	-3.782787880776924e-15
	-1.216068559673663e-17
	-1.915424191825698e-14
	1.064650210409832e-06
	1.127686217442097e-04
	1.293256371166457e-05
	2.447741807718977e-01

 61	6.100000000000003e-01
	-3.766067653599890e-15
	-1.253032715626935e-17
	-1.924873014562333e-14
	1.126431987395445e-06
	1.218289990054216e-04
	1.410505199927626e-05
	2.447743177307398e-01

 62	6.200000000000003e-01
	-3.750144465992089e-15
	-1.291177482210208e-17
	-1.934127752624037e-14
	1.191154912514641e-06
	1.314383858187709e-04
	1.537087034849654e-05
	2.447744655926292e-01

 63	6.300000000000003e-01
	-3.735002508138342e-15
	-1.330544039338663e-17
	-1.943189890723476e-14
	1.258924168745511e-06
	1.416090238996672e-04
	1.673557047390546e-05
	2.447746250060594e-01

 64	6.400000000000003e-01
	-3.720625897228914e-15
	-1.371175179233062e-17
	-1.952061013549534e-14
	1.329847985636987e-06
	1.523512421308151e-04
	1.820481697848741e-05
	2.447747966326931e-01

 65	6.500000000000004e-01
	-3.706998699323285e-15
	-1.413115377079671e-17
	-1.960742800017251e-14
	1.404037892348249e-06
	1.636732727510993e-04
	1.978436728871847e-05
	2.447749811450055e-01

 66	6.600000000000004e-01
	-3.694104950361354e-15
	-1.456410865080467e-17
	-1.969237017588957e-14
	1.481609010763994e-06
	1.755810809544809e-04
	2.148004981625778e-05
	2.447751792237433e-01

 67	6.700000000000004e-01
	-3.681928676305518e-15
	-1.501109710067865e-17
	-1.977545516677734e-14
	1.562680392687945e-06
	1.880782111744216e-04
	2.329774049696075e-05
	2.447753915551844e-01

 68	6.800000000000004e-01
	-3.670453912401429e-15
	-1.547261894868304e-17
	-1.985670225143310e-14
	1.647375405299766e-06
	2.011656531919787e-04
	2.524333789007112e-05
	2.447756188282218e-01

 69	6.900000000000004e-01
	-3.659664721548614e-15
	-1.594919403607790e-17
	-1.993613142889651e-14
	1.735822169245790e-06
	2.148417309872428e-04
	2.732273705080550e-05
	2.447758617313210e-01

 70	7.000000000000004e-01
	-3.649545211775676e-15
	-1.644136311164866e-17
	-2.001376336572646e-14
	1.828154053925785e-06
	2.291020169558514e-04
	2.954180241731172e-05
	2.447761209493502e-01

 71	7.100000000000004e-01
	-3.640079552817963e-15
	-1.694968876986033e-17
	-2.008961934425393e-14
	1.924510234741687e-06
	2.439392737393219e-04
	3.190633997738709e-05
	2.447763971603406e-01

 72	7.200000000000004e-01
	-3.631251991798675e-15
	-1.747475643491681e-17
	-2.016372121207809e-14
	2.025036317296483e-06
	2.593434254769901e-04
	3.442206900066638e-05
	2.447766910321728e-01

 73	7.300000000000004e-01
	-3.623046868017359e-15
	-1.801717539312214e-17
	-2.023609133286413e-14
	2.129885033780008e-06
	2.753015597881007e-04
	3.709459363759073e-05
	2.447770032192806e-01

 74	7.400000000000004e-01
	-3.615448626851737e-15
	-1.857757987608089e-17
	-2.030675253849496e-14
	2.239217017063587e-06
	2.917979612471966e-04
	3.992937469684659e-05
	2.447773343593494e-01

 75	7.500000000000004e-01
	-3.608441832782077e-15
	-1.915663019741003e-17
	-2.037572808261961e-14
	2.353201658356846e-06
	3.088141765381878e-04
	4.293170191769390e-05
	2.447776850700741e-01

 76	7.600000000000005e-01
	-3.602011181548874e-15
	-1.975501394577710e-17
	-2.044304159563571e-14
	2.472018054670827e-06
	3.263291108779007e-04
	4.610666705246120e-05
	2.447780559460354e-01

 77	7.700000000000005e-01
	-3.596141511456598e-15
	-2.037344723724946e-17
	-2.050871704113596e-14
	2.595856052795141e-06
	3.443191547047848e-04
	4.945913806738497e-05
	2.447784475556762e-01

 78	7.800000000000005e-01
	-3.590817813838433e-15
	-2.101267603008627e-17
	-2.057277867384195e-14
	2.724917397047718e-06
	3.627583390492879e-04
	5.299373475696932e-05
	2.447788604384599e-01

 79	7.900000000000005e-01
	-3.586025242698229e-15
	-2.167347750528966e-17
	-2.063525099904290e-14
	2.859416988710602e-06
	3.816185174555354e-04
	5.671480604840748e-05
	2.447792951022282e-01

 80	8.000000000000005e-01
	-3.581749123547226e-15
	-2.235666151641080e-17
	-2.069615873355111e-14
	2.999584265841734e-06
	4.008695718245552e-04
	6.062640924873136e-05
	2.447797520207705e-01

 81	8.100000000000005e-01
	-3.577974961454550e-15
	-2.306307211229802e-17
	-2.075552676818045e-14
	3.145664713068690e-06
	4.204796391109197e-04
	6.473229145876610e-05
	2.447802316316572e-01

 82	8.200000000000005e-01
	-3.574688448331450e-15
	-2.379358913667216e-17
	-2.081338013174893e-14
	3.297921512047671e-06
	4.404153554390761e-04
	6.903587334537397e-05
	2.447807343343424e-01

 83	8.300000000000005e-01
	-3.571875469470068e-15
	-2.454912990864171e-17
	-2.086974395660223e-14
	3.456637344529845e-06
	4.606421139216274e-04
	7.354023542760557e-05
	2.447812604885673e-01

 84	8.400000000000005e-01
	-3.569522109358101e-15
	-2.533065098847561e-17
	-2.092464344565014e-14
	3.622116361442200e-06
	4.811243322658274e-04
	7.824810699413451e-05
	2.447818104130608e-01

 85	8.500000000000005e-01
	-3.567614656791817e-15
	-2.613915003320501e-17
	-2.097810384090401e-14
	3.794686333085444e-06
	5.018257261495877e-04
	8.316185772958428e-05
	2.447823843845553e-01

 86	8.600000000000005e-01
	-3.566139609309722e-15
	-2.697566774686104e-17
	-2.103015039349944e-14
	3.974700997505592e-06
	5.227095843347423e-04
	8.828349208701843e-05
	2.447829826371374e-01

 87	8.700000000000006e-01
	-3.565083676969701e-15
	-2.784128993042342e-17
	-2.108080833518540e-14
	4.162542626338971e-06
	5.437390415603986e-04
	9.361464640384763e-05
	2.447836053619025e-01

 88	8.800000000000006e-01
	-3.564433785492791e-15
	-2.873714963682975e-17
	-2.113010285125703e-14
	4.358624829994657e-06
	5.648773454173698e-04
	9.915658871954780e-05
	2.447842527069294e-01

 89	8.900000000000006e-01
	-3.564177078796588e-15
	-2.966442943667516e-17
	-2.117805905490733e-14
	4.563395626962414e-06
	5.860881136383297e-04
	1.049102212167177e-04
	2.447849247775684e-01

 90	9.000000000000006e-01
	-3.564300920941138e-15
	-3.062436380054281e-17
	-2.122470196296994e-14
	4.777340805358500e-06
	6.073355785374567e-04
	1.108760851728073e-04
	2.447856216370152e-01

 91	9.100000000000006e-01
	-3.564792897510391e-15
	-3.161824160422186e-17
	-2.127005647302274e-14
	5.000987608593258e-06
	6.285848156867447e-04
	1.170543682789302e-04
	2.447863433071579e-01

 92	9.200000000000006e-01
	-3.565640816451647e-15
	-3.264740876338946e-17
	-2.131414734182053e-14
	5.234908781315139e-06
	6.498019543113791e-04
	1.234449141550002e-04
	2.447870897696940e-01

 93	9.300000000000006e-01
	-3.566832708395263e-15
	-3.371327100469698e-17
	-2.135699916502250e-14
	5.479727016617328e-06
	6.709543673110546e-04
	1.300472338674084e-04
	2.447878609674771e-01

 94	9.400000000000006e-01
	-3.568356826476371e-15
	-3.481729678055795e-17
	-2.139863635817930e-14
	5.736119850950102e-06
	6.920108392546220e-04
	1.368605192367315e-04
	2.447886568060511e-01

 95	9.500000000000006e-01
	-3.570201645680101e-15
	-3.596102033529975e-17
	-2.143908313894259e-14
	6.004825059341545e-06
	7.129417111396962e-04
	1.438836577086722e-04
	2.447894771554149e-01

 96	9.600000000000006e-01
	-3.572355861730741e-15
	-3.714604493076985e-17
	-2.147836351045953e-14
	6.286646610480703e-06
	7.337190011456675e-04
	1.511152485516251e-04
	2.447903218518877e-01

 97	9.700000000000006e-01
	-3.574808389545409e-15
	-3.837404623986253e-17
	-2.151650124591246e-14
	6.582461249049310e-06
	7.543165010264259e-04
	1.585536201386160e-04
	2.447911907001480e-01

 98	9.800000000000006e-01
	-3.577548361271097e-15
	-3.964677591689127e-17
	-2.155351987416521e-14
	6.893225781519161e-06
	7.747098481803600e-04
	1.661968480699018e-04
	2.447920834753308e-01

 99	9.900000000000007e-01
	-3.580565123924395e-15
	-4.096606535416306e-17
	-2.158944266647475e-14
	7.219985151571359e-06
	7.948765737909147e-04
	1.740427738946771e-04
	2.447929999252356e-01

 100	1.000000000000001e+00
	-3.583848236651412e-15
	-4.233382963457903e-17
	-2.162429262422819e-14
	7.563881402482530e-06
	8.147961277466220e-04
	1.820890241959584e-04
	2.447939397725395e-01

 101	1.010000000000001e+00
	-3.587387467625241e-15
	-4.375207169056579e-17
	-2.165809246766400e-14
	7.926163636395028e-06
	8.344498813196714e-04
	1.903330298111621e-04
	2.447949027170551e-01

 102	1.020000000000001e+00
	-3.591172790597151e-15
	-4.522288668014109e-17
	-2.169086462553642e-14
	8.308199094506327e-06
	8.538211088053510e-04
	1.987720449719226e-04
	2.447958884379524e-01

 103	1.030000000000001e+00
	-3.595194381117197e-15
	-4.674846659141819e-17
	-2.172263122568194e-14
	8.711485498026884e-06
	8.728949494988829e-04
	2.074031661595813e-04
	2.447968965959806e-01

 104	1.040000000000001e+00
	-3.599442612438410e-15
	-4.833110508739916e-17
	-2.175341408644759e-14
	9.137664807440298e-06
	8.916583515127751e-04
	2.162233504872986e-04
	2.447979268356054e-01

 105	1.050000000000001e+00
	-3.603908051118624e-15
	-4.997320260343137e-17
	-2.178323470893940e-14
	9.588538577302824e-06
	9.100999990172234e-04
	2.252294334351648e-04
	2.447989787870805e-01

 106	1.060000000000001e+00
	-3.608581452332354e-15
	-5.167727171025301e-17
	-2.181211427005189e-14
	1.006608510569442e-05
	9.282102245217897e-04
	2.344181457807625e-04
	2.448000520684240e-01

 107	1.070000000000001e+00
	-3.613453754904949e-15
	-5.344594275613021e-17
	-2.184007361623780e-14
	1.057247860159109e-05
	9.459809078113448e-04
	2.437861295838011e-04
	2.448011462872992e-01

 108	1.080000000000001e+00
	-3.618516076079440e-15
	-5.528196980214615e-17
	-2.186713325797954e-14
	1.111011061993733e-05
	9.634053631076345e-04
	2.533299530994541e-04
	2.448022610427434e-01

 109	1.090000000000001e+00
	-3.623759706026455e-15
	-5.718823686527897e-17
	-2.189331336492294e-14
	1.168161404303254e-05
	9.804782159535683e-04
	2.630461245103169e-04
	2.448033959267751e-01

 110	1.100000000000001e+00
	-3.629176102106170e-15
	-5.916776448448421e-17
	-2.191863376163569e-14
	1.228988991788081e-05
	9.971952712162402e-04
	2.729311043814534e-04
	2.448045505258571e-01

 111	1.110000000000001e+00
	-3.634756882890299e-15
	-6.122371662557534e-17
	-2.194311392395272e-14
	1.293813749205933e-05
	1.013553373481232e-03
	2.829813167563316e-04
	2.448057244221850e-01

 112	1.120000000000001e+00
	-3.640493821951547e-15
	-6.335940794125763e-17
	-2.196677297587210e-14
	1.362988782486999e-05
	1.029550260970346e-03
	2.931931588234863e-04
	2.448069171948163e-01

 113	1.130000000000001e+00
	-3.646378841426886e-15
	-6.557831140322087e-17
	-2.198962968696520e-14
	1.436904138511532e-05
	1.045184413963260e-03
	3.035630090942922e-04
	2.448081284206293e-01

 114	1.140000000000001e+00
	-3.652404005360109e-15
	-6.788406632374966e-17
	-2.201170247026623e-14
	1.515991008036099e-05
	1.060454898546427e-03
	3.140872340412822e-04
	2.448093576751021e-01

 115	1.150000000000001e+00
	-3.658561512828318e-15
	-7.028048678480038e-17
	-2.203300938060672e-14
	1.600726419290731e-05
	1.075361206355741e-03
	3.247621931538716e-04
	2.448106045328902e-01

 116	1.160000000000001e+00
	-3.664843690856435e-15
	-7.277157049297332e-17
	-2.205356811336123e-14
	1.691638472188253e-05
	1.089903090829884e-03
	3.355842423742240e-04
	2.448118685682477e-01

 117	1.170000000000001e+00
	-3.671242987122416e-15
	-7.536150807924573e-17
	-2.207339600357206e-14
	1.789312164469392e-05
	1.104080400356808e-03
	3.465497358805360e-04
	2.448131493552197e-01

 118	1.180000000000001e+00
	-3.677751962456040e-15
	-7.805469286269211e-17
	-2.209251002542043e-14
	1.894395860871639e-05
	1.117892908584242e-03
	3.576550261881850e-04
	2.448144464676554e-01

 119	1.190000000000001e+00
	-3.684363283132604e-15
	-8.085573109771154e-17
	-2.211092679201379e-14
	2.007608453775007e-05
	1.131340142088041e-03
	3.688964625415164e-04
	2.448157594790324e-01

 120	1.200000000000001e+00
	-3.691069712962671e-15
	-8.376945272453580e-17
	-2.212866255545848e-14
	2.129747257698367e-05
	1.144421205561571e-03
	3.802703875707809e-04
	2.448170879620520e-01

 121	1.210000000000001e+00
	-3.697864105178448e-15
	-8.680092264285429e-17
	-2.214573320718865e-14
	2.261696669124036e-05
	1.157134604720702e-03
	3.917731321904274e-04
	2.448184314880533e-01

 122	1.220000000000001e+00
	-3.704739394116579e-15
	-8.995545252843279e-17
	-2.216215427852294e-14
	2.404437605645274e-05
	1.169478067232144e-03
	4.034010087174361e-04
	2.448197896262064e-01

 123	1.230000000000001e+00
	-3.711688586697053e-15
	-9.323861321243240e-17
	-2.217794094142086e-14
	2.559057712108208e-05
	1.181448362190549e-03
	4.151503021923998e-04
	2.448211619424960e-01

 124	1.240000000000001e+00
	-3.718704753697363e-15
	-9.665624764281559e-17
	-2.219310800941214e-14
	2.726762283456947e-05
	1.193041119020922e-03
	4.270172598929580e-04
	2.448225479984999e-01

 125	1.250000000000001e+00
	-3.725781020820844e-15
	-1.002144844467441e-16
	-2.220766993867272e-14
	2.908885800988485e-05
	1.204250647200919e-03
	4.389980790403929e-04
	2.448239473499554e-01

 126	1.260000000000001e+00
	-3.732910559558023e-15
	-1.039197521121354e-16
	-2.222164082922202e-14
	3.106903906684853e-05
	1.215069758921002e-03
	4.510888927175581e-04
	2.448253595451085e-01

 127	1.270000000000001e+00
	-3.740086577839829e-15
	-1.077787938055386e-16
	-2.223503442621651e-14
	3.322445544714099e-05
	1.225489597771195e-03
	4.632857540420783e-04
	2.448267841228715e-01

 128	1.280000000000001e+00
	-3.747302310481478e-15
	-1.117986828422648e-16
	-2.224786412131613e-14
	3.557304875329526e-05
	1.235499477804447e-03
	4.755846186757391e-04
	2.448282206107765e-01

 129	1.290000000000001e+00
	-3.754551009416501e-15
	-1.159868388230507e-16
	-2.226014295409951e-14
	3.813452409733825e-05
	1.245086738915348e-03
	4.879813258020372e-04
	2.448296685227564e-01

 130	1.300000000000001e+00
	-3.761825933720239e-15
	-1.203510444496035e-16
	-2.227188361350621e-14
	4.093044621595760e-05
	1.254236626413454e-03
	5.004715777726837e-04
	2.448311273567662e-01

 131	1.310000000000001e+00
	-3.769120339423567e-15
	-1.248994630289461e-16
	-2.228309843928336e-14
	4.398431060816587e-05
	1.262932204957644e-03
	5.130509187137148e-04
	2.448325965922855e-01

 132	1.320000000000001e+00
	-3.776427469117800e-15
	-1.296406566736329e-16
	-2.229379942341594e-14
	4.732157731234956e-05
	1.271154319599363e-03
	5.257147124961841e-04
	2.448340756877447e-01

 133	1.330000000000001e+00
	-3.783740541353398e-15
	-1.345836052015088e-16
	-2.230399821151974e-14
	5.096965206676588e-05
	1.278881619430789e-03
	5.384581206174520e-04
	2.448355640779455e-01

 134	1.340000000000001e+00
	-3.791052739835953e-15
	-1.397377257347279e-16
	-2.231370610417742e-14
	5.495779669940994e-05
	1.286090662014877e-03
	5.512760807075821e-04
	2.448370611715421e-01

 135	1.350000000000001e+00
	-3.798357202425441e-15
	-1.451128929930980e-16
	-2.232293405819786e-14
	5.931694801949931e-05
	1.292756119011185e-03
	5.641632865686676e-04
	2.448385663487234e-01

 136	1.360000000000001e+00
	-3.805647009945715e-15
	-1.507194602715414e-16
	-2.233169268778080e-14
	6.407942275958302e-05
	1.298851104657889e-03
	5.771141708663237e-04
	2.448400789591856e-01

 137	1.370000000000001e+00
	-3.812915174814404e-15
	-1.565682810853128e-16
	-2.233999226556842e-14
	6.927848596541699e-05
	1.304347648294479e-03
	5.901228918083499e-04
	2.448415983205677e-01

 138	1.380000000000001e+00
	-3.820154629505910e-15
	-1.626707314596250e-16
	-2.234784272356696e-14
	7.494776255004959e-05
	1.309217329025386e-03
	6.031833253443588e-04
	2.448431237175580e-01

 139	1.390000000000001e+00
	-3.827358214862831e-15
	-1.690387328324695e-16
	-2.235525365392204e-14
	8.112047751976011e-05
	1.313432083978292e-03
	6.162890645712331e-04
	2.448446544018116e-01

 140	1.400000000000001e+00
	-3.834518668275115e-15
	-1.756847755303260e-16
	-2.236223430953296e-14
	8.782852057692267e-05
	1.316965190559104e-03
	6.294334280922072e-04
	2.448461895929349e-01

 141	1.410000000000001e+00
	-3.841628611749893e-15
	-1.826219427663889e-16
	-2.236879360449151e-14
	9.510134600399033e-05
	1.319792407197237e-03
	6.426094790059402e-04
	2.448477284807032e-01

 142	1.420000000000001e+00
	-3.848680539898822e-15
	-1.898639350994226e-16
	-2.237494011433363e-14
	1.029647388205982e-04
	1.321893236608941e-03
	6.558100559479371e-04
	2.448492702286792e-01

 143	1.430000000000001e+00
	-3.855666807874920e-15
	-1.974250952784448e-16
	-2.238068207609316e-14
	1.114395019584843e-04
	1.323252252013975e-03
	6.690278171307388e-04
	2.448508139793694e-01

 144	1.440000000000001e+00
	-3.862579619295243e-15
	-2.053204333840248e-16
	-2.238602738814964e-14
	1.205401439717603e-04
	1.323860402847132e-03
	6.822552976132961e-04
	2.448523588608990e-01

 145	1.450000000000001e+00
	-3.869411014191648e-15
	-2.135656521606579e-16
	-2.239098360986482e-14
	1.302736684933314e-04
	1.323716196498574e-03
	6.954849790903773e-04
	2.448539039951776e-01

 146	1.460000000000001e+00
	-3.876152857037326e-15
	-2.221771724167260e-16
	-2.239555796100513e-14
	1.406385801424443e-04
	1.322826641546879e-03
	7.087093703940538e-04
	2.448554485072892e-01

 147	1.470000000000001e+00
	-3.882796824904007e-15
	-2.311721583484000e-16
	-2.239975732095127e-14
	1.516242217448013e-04
	1.321207840679643e-03
	7.219210957549589e-04
	2.448569915358074e-01

 148	1.480000000000001e+00
	-3.889334395811379e-15
	-2.405685426218519e-16
	-2.240358822769915e-14
	1.632105408546798e-04
	1.318885141251200e-03
	7.351129868378698e-04
	2.448585322435402e-01

 149	1.490000000000001e+00
	-3.895756837339155e-15
	-2.503850510240876e-16
	-2.240705687665997e-14
	1.753683489738020e-04
	1.315892788312834e-03
	7.482781738173896e-04
	2.448600698281724e-01

 150	1.500000000000001e+00
	-3.902055195581003e-15
	-2.606412264666480e-16
	-2.241016911927108e-14
	1.880600878894407e-04
	1.312273075068596e-03
	7.614101704507659e-04
	2.448616035321887e-01

 151	1.510000000000001e+00
	-3.908220284530454e-15
	-2.713574520985767e-16
	-2.241293046143242e-14
	2.012410615337493e-04
	1.308075041377155e-03
	7.745029483321561e-04
	2.448631326515616e-01

 152	1.520000000000001e+00
	-3.914242675999982e-15
	-2.825549732555360e-16
	-2.241534606178685e-14
	2.148610385972209e-04
	1.303352822224403e-03
	7.875509962834032e-04
	2.448646565426771e-01

 153	1.530000000000001e+00
	-3.920112690187166e-15
	-2.942559179407914e-16
	-2.241742072986590e-14