Title: ** sch_path: /home/andylithia/openmpw/project-yatsuhashi-chip1/xschem/gmid_test/nmos_test.sch
Date: Sun Jul 17 22:51:45  2022
Plotname: DC transfer characteristic
Flags: real
No. Variables: 8
No. Points: 181
Variables:
	0	v(v-sweep)	voltage
	1	@m.xm1.msky130_fd_pr__nfet_01v8[cgb]	capacitance
	2	@m.xm1.msky130_fd_pr__nfet_01v8[cgd]	capacitance
	3	@m.xm1.msky130_fd_pr__nfet_01v8[cgs]	capacitance
	4	@m.xm1.msky130_fd_pr__nfet_01v8[gds]	admittance
	5	@m.xm1.msky130_fd_pr__nfet_01v8[gm]	admittance
	6	i(@m.xm1.msky130_fd_pr__nfet_01v8[id])	current
	7	v(@m.xm1.msky130_fd_pr__nfet_01v8[vth])	voltage
Values:
 0	0.000000000000000e+00
	-3.055949483506875e-15
	-2.229669055741481e-19
	-1.979644516739609e-15
	1.154053763308871e-09
	6.135305677314205e-08
	4.525944396628102e-09
	3.931575176073497e-01

 1	1.000000000000000e-02
	-3.023233695552452e-15
	-2.321875403315403e-19
	-2.048461696604573e-15
	1.320762317361765e-09
	7.014248619815075e-08
	5.182457087784898e-09
	3.931575176782268e-01

 2	2.000000000000000e-02
	-2.990369274932628e-15
	-2.417771436124903e-19
	-2.118722972256532e-15
	1.511112977344978e-09
	8.016827637938165e-08
	5.932913049458579e-09
	3.931575177592468e-01

 3	3.000000000000000e-02
	-2.957369396430942e-15
	-2.517491978160717e-19
	-2.190398711867424e-15
	1.728361895667629e-09
	9.160032852452408e-08
	6.790507574493228e-09
	3.931575178518331e-01

 4	4.000000000000000e-02
	-2.924248321571957e-15
	-2.621175938280739e-19
	-2.263455519377274e-15
	1.976192734040001e-09
	1.046313144967476e-07
	7.770246468070822e-09
	3.931575179576050e-01

 5	5.000000000000000e-02
	-2.891021363060134e-15
	-2.728966400805679e-19
	-2.337856244380017e-15
	2.258768330322883e-09
	1.194796874363302e-07
	8.889188488643336e-09
	3.931575180784080e-01

 6	6.000000000000000e-02
	-2.857704842749285e-15
	-2.841010718580718e-19
	-2.413560012200431e-15
	2.580787674906289e-09
	1.363931030085566e-07
	1.016671989990788e-08
	3.931575182163312e-01

 7	7.000000000000001e-02
	-2.824316043238145e-15
	-2.957460608758897e-19
	-2.490522274610914e-15
	2.947548547544601e-09
	1.556523142836494e-07
	1.162486554641199e-08
	3.931575183737527e-01

 8	8.000000000000000e-02
	-2.790873153252383e-15
	-3.078472251578271e-19
	-2.568694881460505e-15
	3.365016146202987e-09
	1.775756146632246e-07
	1.328864155081074e-08
	3.931575185533757e-01

 9	9.000000000000000e-02
	-2.757395207038783e-15
	-3.204206392423850e-19
	-2.648026173300583e-15
	3.839898008130911e-09
	2.025239168380518e-07
	1.518645554085315e-08
	3.931575187582638e-01

 10	9.999999999999999e-02
	-2.723902018061809e-15
	-3.334828447479443e-19
	-2.728461094897204e-15
	4.379725477865062e-09
	2.309065717981239e-07
	1.735056127201713e-08
	3.931575189919033e-01

 11	1.100000000000000e-01
	-2.690414107355875e-15
	-3.470508613294289e-19
	-2.809941329320869e-15
	4.992941914839507e-09
	2.631880507058091e-07
	1.981757564347189e-08
	3.931575192582425e-01

 12	1.200000000000000e-01
	-2.656952626947301e-15
	-3.611421980602415e-19
	-2.892405452101474e-15
	5.688997752331576e-09
	2.998956342241687e-07
	2.262906743945780e-08
	3.931575195617735e-01

 13	1.300000000000000e-01
	-2.623539278816896e-15
	-3.757748652751959e-19
	-2.975789104735758e-15
	6.478452417237114e-09
	3.416282788109430e-07
	2.583222869606292e-08
	3.931575199075903e-01

 14	1.400000000000000e-01
	-2.590196229926919e-15
	-3.909673869113659e-19
	-3.060025186635274e-15
	7.373082994377099e-09
	3.890668575327609e-07
	2.948064142611304e-08
	3.931575203014744e-01

 15	1.500000000000000e-01
	-2.556946023883705e-15
	-4.067388133856019e-19
	-3.145044064411282e-15
	8.385999367736207e-09
	4.429860038815882e-07
	3.363515456284192e-08
	3.931575207500007e-01

 16	1.600000000000000e-01
	-2.523811489848508e-15
	-4.231087350487625e-19
	-3.230773797210607e-15
	9.531765392684693e-09
	5.042678203120158e-07
	3.836488843242171e-08
	3.931575212606290e-01

 17	1.700000000000000e-01
	-2.490815649343973e-15
	-4.400972962581466e-19
	-3.317140376644693e-15
	1.082652544693709e-08
	5.739177477420378e-07
	4.374838685466433e-08
	3.931575218418368e-01

 18	1.800000000000000e-01
	-2.457981621630745e-15
	-4.577252101110298e-19
	-3.404067979699010e-15
	1.228813547375741e-08
	6.530829264712318e-07
	4.987494010578018e-08
	3.931575225032666e-01

 19	1.900000000000000e-01
	-2.425332528348147e-15
	-4.760137738836060e-19
	-3.491479232870876e-15
	1.393629736979576e-08
	7.430734105405271e-07
	5.684610544278871e-08
	3.931575232558847e-01

 20	2.000000000000000e-01
	-2.392891398123950e-15
	-4.949848852208065e-19
	-3.579295485664519e-15
	1.579269528439629e-08
	8.453866232889099e-07
	6.477745564444895e-08
	3.931575241121659e-01

 21	2.100000000000000e-01
	-2.360681071860865e-15
	-5.146610591238044e-19
	-3.667437091474316e-15
	1.788113209131064e-08
	9.617354575507411e-07
	7.380058998985603e-08
	3.931575250863198e-01

 22	2.200000000000001e-01
	-2.328724109401377e-15
	-5.350654457833433e-19
	-3.755823693812966e-15
	2.022766397340852e-08
	1.094080424278039e-06
	8.406544614720254e-08
	3.931575261945323e-01

 23	2.300000000000001e-01
	-2.297042698257983e-15
	-5.562218493079635e-19
	-3.844374515790472e-15
	2.286073073409136e-08
	1.244666231919843e-06
	9.574295539668637e-08
	3.931575274552626e-01

 24	2.400000000000001e-01
	-2.265658565073145e-15
	-5.781547473979036e-19
	-3.933008650725129e-15
	2.581127912580688e-08
	1.416063128130639e-06
	1.090280872087291e-07
	3.931575288895552e-01

 25	2.500000000000001e-01
	-2.234592890442594e-15
	-6.008893120158241e-19
	-4.021645351766886e-15
	2.911287617848340e-08
	1.611213246914850e-06
	1.241433321067411e-07
	3.931575305214376e-01

 26	2.600000000000001e-01
	-2.203866227697172e-15
	-6.244514311076690e-19
	-4.110204318440433e-15
	3.280180923322784e-08
	1.833482069259037e-06
	1.413426735418081e-07
	3.931575323783284e-01

 27	2.700000000000001e-01
	-2.173498426193800e-15
	-6.488677314273062e-19
	-4.198605978063954e-15
	3.691716915516724e-08
	2.086714914855229e-06
	1.609160996839546e-07
	3.931575344915363e-01

 28	2.800000000000001e-01
	-2.143508559614801e-15
	-6.741656025202696e-19
	-4.286771760074753e-15
	4.150091303141708e-08
	2.375298128821356e-06
	1.831947039972534e-07
	3.931575368968144e-01

 29	2.900000000000001e-01
	-2.113914859718743e-15
	-7.003732219231841e-19
	-4.374624361389143e-15
	4.659790257383782e-08
	2.704224304531086e-06
	2.085564185496325e-07
	3.931575396349621e-01

 30	3.000000000000001e-01
	-2.084734655925507e-15
	-7.275195816362275e-19
	-4.462088001040281e-15
	5.225591445956990e-08
	3.079160489274632e-06
	2.374324155058672e-07
	3.931575427525380e-01

 31	3.100000000000001e-01
	-2.055984321054252e-15
	-7.556345159282900e-19
	-4.549088662474545e-15
	5.852561897239554e-08
	3.506517855825446e-06
	2.703141994555426e-07
	3.931575463026076e-01

 32	3.200000000000001e-01
	-2.027679223467196e-15
	-7.847487305346579e-19
	-4.635554322037363e-15
	6.546052356939614e-08
	3.993520798798232e-06
	3.077613954807702e-07
	3.931575503455996e-01

 33	3.300000000000001e-01
	-1.999833685804454e-15
	-8.148938333097811e-19
	-4.721415162345729e-15
	7.311687840180577e-08
	4.548272846536862e-06
	3.504102146426706e-07
	3.931575549502052e-01

 34	3.400000000000001e-01
	-1.972460950427957e-15
	-8.461023663984328e-19
	-4.806603769419613e-15
	8.155354137304024e-08
	5.179816192720616e-06
	3.989825495403704e-07
	3.931575601943701e-01

 35	3.500000000000001e-01
	-1.945573151625492e-15
	-8.784078399905342e-19
	-4.891055312628817e-15
	9.083180102182758e-08
	5.898181082076851e-06
	4.542956177561475e-07
	3.931575661663350e-01

 36	3.600000000000002e-01
	-1.919181294560929e-15
	-9.118447677270850e-19
	-4.974707706700264e-15
	1.010151563684305e-07
	6.714420775997797e-06
	5.172720307272805e-07
	3.931575729657223e-01

 37	3.700000000000002e-01
	-1.893295240894338e-15
	-9.464487038260803e-19
	-5.057501755221101e-15
	1.121690538439548e-07
	7.640627428928868e-06
	5.889501207478853e-07
	3.931575807046491e-01

 38	3.800000000000002e-01
	-1.867923700936506e-15
	-9.822562819999246e-19
	-5.139381275263170e-15
	1.243605825157675e-07
	8.689923982941334e-06
	6.704943108257344e-07
	3.931575895088461e-01

 39	3.900000000000002e-01
	-1.843074232147657e-15
	-1.019305256237822e-18
	-5.220293202940072e-15
	1.376581299971503e-07
	9.876427195103380e-06
	7.632052630107507e-07
	3.931575995187631e-01

 40	4.000000000000002e-01
	-1.818753243739684e-15
	-1.057634543529518e-18
	-5.300187679889131e-15
	1.521310026506787e-07
	1.121517720544284e-05
	8.685294931639865e-07
	3.931576108905923e-01

 41	4.100000000000002e-01
	-1.794966007096391e-15
	-1.097284268608873e-18
	-5.379018120841492e-15
	1.678490149199458e-07
	1.272202967758990e-05
	9.880680970433710e-07
	3.931576237972294e-01

 42	4.200000000000002e-01
	-1.771716671686561e-15
	-1.138295810799580e-18
	-5.456741262606367e-15
	1.848820538068018e-07
	1.441350752790460e-05
	1.123584197518392e-06
	3.931576384290597e-01

 43	4.300000000000002e-01
	-1.749008286111115e-15
	-1.180711853047415e-18
	-5.533317194943997e-15
	2.032996256014933e-07
	1.630661060681340e-05
	1.277008699326932e-06
	3.931576549945915e-01

 44	4.400000000000002e-01
	-1.726842823897747e-15
	-1.224576433227835e-18
	-5.608709373939145e-15
	2.231703929220216e-07
	1.841858338415709e-05
	1.450443929605902e-06
	3.931576737208442e-01

 45	4.500000000000002e-01
	-1.705221213634731e-15
	-1.269934997820424e-18
	-5.682884618607983e-15
	2.445617108792876e-07
	2.076664266203169e-05
	1.646164752606271e-06
	3.931576948534728e-01

 46	4.600000000000002e-01
	-1.684143373019604e-15
	-1.316834458046744e-18
	-5.755813091578206e-15
	2.675391717147628e-07
	2.336766950431597e-05
	1.866616777961137e-06
	3.931577186565730e-01

 47	4.700000000000003e-01
	-1.663608246388349e-15
	-1.365323248571261e-18
	-5.827468264772652e-15
	2.921661675231678e-07
	2.623787181186744e-05
	2.114411334973524e-06
	3.931577454121361e-01

 48	4.800000000000003e-01
	-1.643613845285881e-15
	-1.415451388870371e-18
	-5.897826871101724e-15
	3.185034806502810e-07
	2.939242614254036e-05
	2.392316960669068e-06
	3.931577754191298e-01

 49	4.900000000000003e-01
	-1.624157291639150e-15
	-1.467270547379229e-18
	-5.966868843228924e-15
	3.466089110332564e-07
	3.284510931826251e-05
	2.703247245338262e-06
	3.931578089921914e-01

 50	5.000000000000002e-01
	-1.605234863099315e-15
	-1.520834108531505e-18
	-6.034577240517562e-15
	3.765369491291332e-07
	3.660793191915753e-05
	3.050244992906922e-06
	3.931578464599085e-01

 51	5.100000000000002e-01
	-1.586842040128922e-15
	-1.576197242812523e-18
	-6.100938165295385e-15
	4.083385021710162e-07
	4.069078679261468e-05
	3.436462780124727e-06
	3.931578881627239e-01

 52	5.200000000000002e-01
	-1.568973554423490e-15
	-1.633416979952995e-18
	-6.165940669588586e-15
	4.420606803294242e-07
	4.510112608733122e-05
	3.865140132344028e-06
	3.931579344504739e-01

 53	5.300000000000002e-01
	-1.551623438273420e-15
	-1.692552285396765e-18
	-6.229576653478660e-15
	4.777466479788959e-07
	4.984367998425099e-05
	4.339577667701846e-06
	3.931579856795848e-01

 54	5.400000000000003e-01
	-1.534785074492047e-15
	-1.753664140183031e-18
	-6.291840756224411e-15
	5.154355437281173e-07
	5.492022921488801e-05
	4.863108688450226e-06
	3.931580422100135e-01

 55	5.500000000000003e-01
	-1.518451246557349e-15
	-1.816815624391256e-18
	-6.352730241270817e-15
	5.551624712252372e-07
	6.032944166611867e-05
	5.439068810694217e-06
	3.931581044019655e-01

 56	5.600000000000003e-01
	-1.502614188638842e-15
	-1.882072004305611e-18
	-6.412244876234847e-15
	5.969585610619172e-07
	6.606678095828713e-05
	6.070764315185924e-06
	3.931581726124705e-01

 57	5.700000000000003e-01
	-1.487265635206503e-15
	-1.949500823462681e-18
	-6.470386808918801e-15
	6.408511024358994e-07
	7.212449198934362e-05
	6.761439966539311e-06
	3.931582471919159e-01

 58	5.800000000000003e-01
	-1.472396869944682e-15
	-2.019171997758141e-18
	-6.527160440355322e-15
	6.868637416559375e-07
	7.849166523905577e-05
	7.514247082318879e-06
	3.931583284805903e-01

 59	5.900000000000003e-01
	-1.457998773720942e-15
	-2.091157914795361e-18
	-6.582572295834762e-15
	7.350167431421586e-07
	8.515437832443698e-05
	8.332212634850746e-06
	3.931584168053547e-01

 60	6.000000000000003e-01
	-1.444061871386656e-15
	-2.165533537670784e-18
	-6.636630894808625e-15
	7.853273073398105e-07
	9.209591009674637e-05
	9.218210137315645e-06
	3.931585124764896e-01

 61	6.100000000000003e-01
	-1.430576377213099e-15
	-2.242376513401447e-18
	-6.689346620500887e-15
	8.378099389625057e-07
	9.929701966588171e-05
	1.017493300370281e-05
	3.931586157848201e-01

 62	6.200000000000003e-01
	-1.417532238793125e-15
	-2.321767286211523e-18
	-6.740731589995327e-15
	8.924768582398453e-07
	1.067362802964573e-04
	1.120487098337572e-05
	3.931587269991774e-01

 63	6.300000000000003e-01
	-1.404919179264104e-15
	-2.403789215907574e-18
	-6.790799525501529e-15
	9.493384473761171e-07
	1.143904562676404e-04
	1.231029016061846e-05
	3.931588463642331e-01

 64	6.400000000000003e-01
	-1.392726737732590e-15
	-2.488528701584236e-18
	-6.839565627435509e-15
	1.008403724231470e-06
	1.222349096041210e-04
	1.349321688391879e-05
	3.931589740987713e-01

 65	6.500000000000004e-01
	-1.380944307804546e-15
	-2.576075310916694e-18
	-6.887046449885291e-15
	1.069680835302948e-06
	1.302440230956586e-04
	1.475542585577293e-05
	3.931591103943975e-01

 66	6.600000000000004e-01
	-1.369561174147377e-15
	-2.666521915309829e-18
	-6.933259778965855e-15
	1.133177560386260e-06
	1.383916262053538e-04
	1.609843247832447e-05
	3.931592554147088e-01

 67	6.700000000000004e-01
	-1.358566547030625e-15
	-2.759964831188945e-18
	-6.978224514504464e-15
	1.198901821809475e-06
	1.466514112573357e-04
	1.752348941962620e-05
	3.931594092949392e-01

 68	6.800000000000004e-01
	-1.347949594811564e-15
	-2.856503967733886e-18
	-7.021960555435599e-15
	1.266862191809856e-06
	1.549973285944538e-04
	1.903158724535023e-05
	3.931595721420107e-01

 69	6.900000000000004e-01
	-1.337699474349690e-15
	-2.956242981373279e-18
	-7.064488689225010e-15
	1.337068392432913e-06
	1.634039510847709e-04
	2.062345885584499e-05
	3.931597440350289e-01

 70	7.000000000000004e-01
	-1.327805359350095e-15
	-3.059289437374871e-18
	-7.105830485586822e-15
	1.409531783229169e-06
	1.718468003008440e-04
	2.229958738182246e-05
	3.931599250261254e-01

 71	7.100000000000004e-01
	-1.318256466650400e-15
	-3.165754978885138e-18
	-7.146008194703705e-15
	1.484265832966527e-06
	1.803026287662573e-04
	2.406021712550765e-05
	3.931601151416438e-01

 72	7.200000000000004e-01
	-1.309042080478686e-15
	-3.275755503791248e-18
	-7.185044650111098e-15
	1.561286572529895e-06
	1.887496547381828e-04
	2.590536708847418e-05
	3.931603143836043e-01

 73	7.300000000000004e-01
	-1.300151574721438e-15
	-3.389411349799121e-18
	-7.222963176359902e-15
	1.640613027111404e-06
	1.971677479676980e-04
	2.783484660209061e-05
	3.931605227313867e-01

 74	7.400000000000004e-01
	-1.291574433250204e-15
	-3.506847488142664e-18
	-7.259787501530030e-15
	1.722267626678064e-06
	2.055385666675987e-04
	2.984827257006608e-05
	3.931607401435958e-01

 75	7.500000000000004e-01
	-1.283300268364290e-15
	-3.628193726361667e-18
	-7.295541674628249e-15
	1.806276594518860e-06
	2.138456474604324e-04
	3.194508784284945e-05
	3.931609665600425e-01

 76	7.600000000000005e-01
	-1.275318837413794e-15
	-3.753584920610536e-18
	-7.330249987869028e-15
	1.892670314405256e-06
	2.220744513407496e-04
	3.412458026793428e-05
	3.931612019038037e-01

 77	7.700000000000005e-01
	-1.267620057673157e-15
	-3.883161197985218e-18
	-7.363936903805545e-15
	1.981483677539573e-06
	2.302123696502763e-04
	3.638590199555499e-05
	3.931614460833112e-01

 78	7.800000000000005e-01
	-1.260194019539918e-15
	-4.017068189381749e-18
	-7.396626987250618e-15
	2.072756411011360e-06
	2.382486947365791e-04
	3.872808866286571e-05
	3.931616989944091e-01

 79	7.900000000000005e-01
	-1.253030998137054e-15
	-4.155457273429108e-18
	-7.428344841902522e-15
	2.166533389932947e-06
	2.461745603634006e-04
	4.115007812860578e-05
	3.931619605223934e-01

 80	8.000000000000005e-01
	-1.246121463399574e-15
	-4.298485832067875e-18
	-7.459115051570001e-15
	2.262864935787832e-06
	2.539828570938175e-04
	4.365072848191634e-05
	3.931622305439453e-01

 81	8.100000000000005e-01
	-1.239456088727788e-15
	-4.446317518379027e-18
	-7.488962125872598e-15
	2.361807103804826e-06
	2.616681278118616e-04
	4.622883510105487e-05
	3.931625089289753e-01

 82	8.200000000000005e-01
	-1.233025758290402e-15
	-4.599122537298107e-18
	-7.517910450277261e-15
	2.463421962377789e-06
	2.692264483241888e-04
	4.888314658842436e-05
	3.931627955423466e-01

 83	8.300000000000005e-01
	-1.226821573060581e-15
	-4.757077939888812e-18
	-7.545984240320040e-15
	2.567777867694506e-06
	2.766552976307060e-04
	5.161237945607358e-05
	3.931630902454576e-01

 84	8.400000000000005e-01
	-1.220834855667565e-15
	-4.920367931882374e-18
	-7.573207499851547e-15
	2.674949736829955e-06
	2.839534220100023e-04
	5.441523147955246e-05
	3.931633928976851e-01

 85	8.500000000000005e-01
	-1.215057154145272e-15
	-5.089184197233229e-18
	-7.599603983137318e-15
	2.785019322609957e-06
	2.911206965664944e-04
	5.729039367700475e-05
	3.931637033576747e-01

 86	8.600000000000005e-01
	-1.209480244657608e-15
	-5.263726237478469e-18
	-7.625197160638799e-15
	2.898075493570554e-06
	2.981579873611976e-04
	6.023656090421802e-05
	3.931640214844911e-01

 87	8.700000000000006e-01
	-1.204096133278253e-15
	-5.444201727735645e-18
	-7.650010188296686e-15
	3.014214522337611e-06
	3.050670167218175e-04
	6.325244108493887e-05
	3.931643471386038e-01

 88	8.800000000000006e-01
	-1.198897056900190e-15
	-5.630826890216749e-18
	-7.674065880136789e-15
	3.133540385736597e-06
	3.118502338196679e-04
	6.633676311912728e-05
	3.931646801827540e-01

 89	8.900000000000006e-01
	-1.193875483347626e-15
	-5.823826886187435e-18
	-7.697386684017718e-15
	3.256165079925453e-06
	3.185106921254956e-04
	6.948828353030641e-05
	3.931650204826619e-01

 90	9.000000000000006e-01
	-1.189024110760096e-15
	-6.023436227349216e-18
	-7.719994660340706e-15
	3.382208953827003e-06
	3.250519349232478e-04
	7.270579192705006e-05
	3.931653679076209e-01

 91	9.100000000000006e-01
	-1.184335866315425e-15
	-6.229899207679324e-18
	-7.741911463543753e-15
	3.511801064131092e-06
	3.314778896764529e-04
	7.598811536348869e-05
	3.931657223309676e-01

 92	9.200000000000006e-01
	-1.179803904355049e-15
	-6.443470356817081e-18
	-7.763158326205354e-15
	3.645079555143003e-06
	3.377927717086578e-04
	7.933412168993413e-05
	3.931660836304422e-01

 93	9.300000000000006e-01
	-1.175421603972008e-15
	-6.664414916148796e-18
	-7.783756045586547e-15
	3.782192066779429e-06
	3.440009973775945e-04
	8.274272198788549e-05
	3.931664516884549e-01

 94	9.400000000000006e-01
	-1.171182566118481e-15
	-6.893009338804287e-18
	-7.803724972444969e-15
	3.923296174059740e-06
	3.501071066904655e-04
	8.621287218427234e-05
	3.931668263922556e-01

 95	9.500000000000006e-01
	-1.167080610286648e-15
	-7.129541814847153e-18
	-7.823085001959141e-15
	4.068559861510797e-06
	3.561156951216737e-04
	8.974357393828333e-05
	3.931672076340358e-01

 96	9.600000000000006e-01
	-1.163109770813063e-15
	-7.374312823009664e-18
	-7.841855566607289e-15
	4.218162036002610e-06
	3.620313542503925e-04
	9.333387489100403e-05
	3.931675953109461e-01

 97	9.700000000000006e-01
	-1.159264292853849e-15
	-7.627635710399660e-18
	-7.860055630850271e-15
	4.372293081658900e-06
	3.678586207286596e-04
	9.698286836367175e-05
	3.931679893250710e-01

 98	9.800000000000006e-01
	-1.155538628074443e-15
	-7.889837301682530e-18
	-7.877703687475047e-15
	4.531155460647072e-06
	3.736019330164948e-04
	1.006896925850861e-04
	3.931683895833489e-01

 99	9.900000000000007e-01
	-1.151927430094842e-15
	-8.161258539328087e-18
	-7.894817755460879e-15
	4.694964363844848e-06
	3.792655952738544e-04
	1.044535295228182e-04
	3.931687959974335e-01

 100	1.000000000000001e+00
	-1.148425549728073e-15
	-8.442255156593403e-18
	-7.911415379237336e-15
	4.863948415608487e-06
	3.848537477753916e-04
	1.082736033866060e-04
	3.931692084835444e-01

 101	1.010000000000001e+00
	-1.145028030046805e-15
	-8.733198385010125e-18
	-7.927513629209420e-15
	5.038350437134150e-06
	3.903703432088637e-04
	1.121491788659689e-04
	3.931696269622676e-01

 102	1.020000000000001e+00
	-1.141730101310220e-15
	-9.034475698236015e-18
	-7.943129103431916e-15
	5.218428273207434e-06
	3.958191282274603e-04
	1.160795591576954e-04
	3.931700513583532e-01

 103	1.030000000000001e+00
	-1.138527175780450e-15
	-9.346491594235184e-18
	-7.958277930321430e-15
	5.404455687482881e-06
	4.012036296471637e-04
	1.200640838326782e-04
	3.931704816004724e-01

 104	1.040000000000001e+00
	-1.135414842455581e-15
	-9.669668417855618e-18
	-7.972975772300836e-15
	5.596723331822879e-06
	4.065271447092513e-04
	1.241021265855987e-04
	3.931709176209834e-01

 105	1.050000000000001e+00
	-1.132388861743568e-15
	-1.000444722598497e-17
	-7.987237830277388e-15
	5.795539795660900e-06
	4.117927348629594e-04
	1.281930929053537e-04
	3.931713593556760e-01

 106	1.060000000000001e+00
	-1.129445160099178e-15
	-1.035128869758158e-17
	-8.001078848861715e-15
	6.001232741835891e-06
	4.170032225618048e-04
	1.323364176988498e-04
	3.931718067435216e-01

 107	1.070000000000001e+00
	-1.126579824644002e-15
	-1.071067409100352e-17
	-8.014513122240742e-15
	6.214150135878563e-06
	4.221611906075818e-04
	1.365315628959331e-04
	3.931722597264018e-01

 108	1.080000000000001e+00
	-1.123789097787375e-15
	-1.108310625118198e-17
	-8.027554500623614e-15
	6.434661576316337e-06
	4.272689836170644e-04
	1.407780150587541e-04
	3.931727182488615e-01

 109	1.090000000000001e+00
	-1.121069371864278e-15
	-1.146911066932387e-17
	-8.040216397184841e-15
	6.663159734208921e-06
	4.323287112270963e-04
	1.450752830148405e-04
	3.931731822578502e-01

 110	1.100000000000001e+00
	-1.118417183804356e-15
	-1.186923659796799e-17
	-8.052511795434512e-15
	6.900061910829825e-06
	4.373422526930110e-04
	1.494228955294961e-04
	3.931736517024715e-01

 111	1.110000000000001e+00
	-1.115829209844608e-15
	-1.228405822436537e-17
	-8.064453256950324e-15
	7.145811723177315e-06
	4.423112625727695e-04
	1.538203990298881e-04
	3.931741265337314e-01

 112	1.120000000000001e+00
	-1.113302260296744e-15
	-1.271417590530660e-17
	-8.076052929410973e-15
	7.400880927831828e-06
	4.472371772242917e-04
	1.582673553902709e-04
	3.931746067043073e-01

 113	1.130000000000001e+00
	-1.110833274378714e-15
	-1.316021746668224e-17
	-8.087322554875067e-15
	7.665771394583615e-06
	4.521212218761060e-04
	1.627633397852646e-04
	3.931750921683140e-01

 114	1.140000000000001e+00
	-1.108419315118508e-15
	-1.362283957122267e-17
	-8.098273478254218e-15
	7.941017242231633e-06
	4.569644180612786e-04
	1.673079386158363e-04
	3.931755828810723e-01

 115	1.150000000000001e+00
	-1.106057564337299e-15
	-1.410272915804093e-17
	-8.108916655932751e-15
	8.227187150009524e-06
	4.617675912317567e-04
	1.719007475106684e-04
	3.931760787989048e-01

 116	1.160000000000001e+00
	-1.103745317717578e-15
	-1.460060495777749e-17
	-8.119262664490664e-15
	8.524886859229912e-06
	4.665313783947364e-04
	1.765413694039203e-04
	3.931765798789236e-01

 117	1.170000000000001e+00
	-1.101479979961079e-15
	-1.511721908733129e-17
	-8.129321709489924e-15
	8.834761880950922e-06
	4.712562356344602e-04
	1.812294126888920e-04
	3.931770860788267e-01

 118	1.180000000000001e+00
	-1.099259060040270e-15
	-1.565335872835235e-17
	-8.139103634287537e-15
	9.157500426764108e-06
	4.759424454021564e-04
	1.859644894458377e-04
	3.931775973567124e-01

 119	1.190000000000001e+00
	-1.097080166546236e-15
	-1.620984789386451e-17
	-8.148617928842309e-15
	9.493836581177954e-06
	4.805901234738116e-04
	1.907462137411003e-04
	3.931781136708909e-01

 120	1.200000000000001e+00
	-1.094941003135090e-15
	-1.678754928759272e-17
	-8.157873738484740e-15
	9.844553735521445e-06
	4.851992254901869e-04
	1.955741999937997e-04
	3.931786349797129e-01

 121	1.210000000000001e+00
	-1.092839364074197e-15
	-1.738736626076774e-17
	-8.166879872622743e-15
	1.021048830481340e-05
	4.897695530062420e-04
	2.004480614055243e-04
	3.931791612413979e-01

 122	1.220000000000001e+00
	-1.090773129888928e-15
	-1.801024487139741e-17
	-8.175644813358032e-15
	1.059253375062551e-05
	4.943007589880026e-04
	2.053674084478039e-04
	3.931796924138717e-01

 123	1.230000000000001e+00
	-1.088740263109950e-15
	-1.865717605120260e-17
	-8.184176723990721e-15
	1.099164493459442e-05
	4.987923527041307e-04
	2.103318474015628e-04
	3.931802284546027e-01

 124	1.240000000000001e+00
	-1.086738804120674e-15
	-1.932919788562679e-17
	-8.192483457391619e-15
	1.140884282889266e-05
	5.032437039671940e-04
	2.153409789422673e-04
	3.931807693204570e-01

 125	1.250000000000001e+00
	-1.084766867103797e-15
	-2.002739801255031e-17
	-8.200572564223972e-15
	1.184521961162178e-05
	5.076540466860817e-04
	2.203943967640704e-04
	3.931813149675495e-01

 126	1.260000000000001e+00
	-1.082822636085612e-15
	-2.075291614554991e-17
	-8.208451300998018e-15
	1.230194417670631e-05
	5.120224816963275e-04
	2.254916862359024e-04
	3.931818653510922e-01

 127	1.270000000000001e+00
	-1.080904361076270e-15
	-2.150694672775376e-17
	-8.216126637943654e-15
	1.278026808939265e-05
	5.163479788394143e-04
	2.306324230821211e-04
	3.931824204252577e-01

 128	1.280000000000001e+00
	-1.079010354303871e-15
	-2.229074172255565e-17
	-8.223605266687973e-15
	1.328153201983756e-05
	5.206293782657810e-04
	2.358161720800996e-04
	3.931829801430383e-01

 129	1.290000000000001e+00
	-1.077138986539934e-15
	-2.310561354764541e-17
	-8.230893607725832e-15
	1.380717268841760e-05
	5.248653909391818e-04
	2.410424857668726e-04
	3.931835444560975e-01

 130	1.300000000000001e+00
	-1.075288683513678e-15
	-2.395293815900280e-17
	-8.237997817672814e-15
	1.435873035720107e-05
	5.290545983226020e-04
	2.463109031467372e-04
	3.931841133146510e-01

 131	1.310000000000001e+00
	-1.073457922411945e-15
	-2.483415829168981e-17
	-8.244923796291652e-15
	1.493785690238263e-05
	5.331954512283579e-04
	2.516209483915775e-04
	3.931846866672966e-01

 132	1.320000000000001e+00
	-1.071645228462033e-15
	-2.575078686441592e-17
	-8.251677193283249e-15
	1.554632450219503e-05
	5.372862678171832e-04
	2.569721295254178e-04
	3.931852644609028e-01

 133	1.330000000000001e+00
	-1.069849171593817e-15
	-2.670441055501300e-17
	-8.258263414835551e-15
	1.618603497372807e-05
	5.413252307338339e-04
	2.623639370846954e-04
	3.931858466404445e-01

 134	1.340000000000001e+00
	-1.068068363178035e-15
	-2.769669355405147e-17
	-8.264687629923489e-15
	1.685902978990156e-05
	5.453103833695994e-04
	2.677958427455259e-04
	3.931864331488566e-01

 135	1.350000000000001e+00
	-1.066301452837199e-15
	-2.872938150392002e-17
	-8.270954776354378e-15
	1.756750080430068e-05
	5.492396252459667e-04
	2.732672979092065e-04
	3.931870239268916e-01

 136	1.360000000000001e+00
	-1.064547125325539e-15
	-2.980430563073186e-17
	-8.277069566553963e-15
	1.831380170629639e-05
	5.531107065185766e-04
	2.787777322371852e-04
	3.931876189129497e-01

 137	1.370000000000001e+00
	-1.062804097474500e-15
	-3.092338707642139e-17
	-8.283036493088590e-15
	1.910046022139671e-05
	5.569212216069030e-04
	2.843265521266897e-04
	3.931882180429215e-01

 138	1.380000000000001e+00
	-1.061071115200168e-15
	-3.208864143833339e-17
	-8.288859833919823e-15
	1.993019106159428e-05
	5.606686019634338e-04
	2.899131391183631e-04
	3.931888212500157e-01

 139	1.390000000000001e+00
	-1.059346950569075e-15
	-3.330218352350058e-17
	-8.294543657388294e-15
	2.080590961693969e-05
	5.643501080068126e-04
	2.955368482274006e-04
	3.931894284645759e-01

 140	1.400000000000001e+00
	-1.057630398918894e-15
	-3.456623232460690e-17
	-8.300091826923850e-15
	2.173074636195660e-05
	5.679628202571608e-04
	3.011970061900221e-04
	3.931900396138892e-01

 141	1.410000000000001e+00
	-1.055920276030630e-15
	-3.588311622436111e-17
	-8.305508005479728e-15
	2.270806192794600e-05
	5.715036297292169e-04
	3.068929096175446e-04
	3.931906546219939e-01

 142	1.420000000000001e+00
	-1.054215415348890e-15
	-3.725527843464222e-17
	-8.310795659688799e-15
	2.374146276373653e-05
	5.749692276608959e-04
	3.126238230510304e-04
	3.931912734094643e-01

 143	1.430000000000001e+00
	-1.052514665247191e-15
	-3.868528267629095e-17
	-8.315958063740089e-15
	2.483481727187709e-05
	5.783560946820377e-04
	3.183889769103480e-04
	3.931918958931948e-01

 144	1.440000000000001e+00
	-1.050816886335169e-15
	-4.017581910481308e-17
	-8.320998302974586e-15
	2.599227226342986e-05
	5.816604895616732e-04
	3.241875653327260e-04
	3.931925219861579e-01

 145	1.450000000000001e+00
	-1.049120948804991e-15
	-4.172971048652010e-17
	-8.325919277199142e-15
	2.721826952103439e-05
	5.848784377128321e-04
	3.300187438974321e-04
	3.931931515971646e-01

 146	1.460000000000001e+00
	-1.047425729814352e-15
	-4.334991862870290e-17
	-8.330723703718132e-15
	2.851756219539327e-05
	5.880057196830726e-04
	3.358816272352654e-04
	3.931937846306034e-01

 147	1.470000000000001e+00
	-1.045730110903828e-15
	-4.503955106635367e-17
	-8.335414120082521e-15
	2.989523068335234e-05
	5.910378599173004e-04
	3.417752865240913e-04
	3.931944209861749e-01

 148	1.480000000000001e+00
	-1.044032975446599e-15
	-4.680186800664185e-17
	-8.339992886556673e-15
	3.135669754502349e-05
	5.939701161482365e-04
	3.476987468748744e-04
	3.931950605586059e-01

 149	1.490000000000001e+00
	-1.042333206128962e-15
	-4.864028953081471e-17
	-8.344462188303457e-15
	3.290774091183782e-05
	5.967974698496848e-04
	3.536509846165863e-04
	3.931957032373512e-01

 150	1.500000000000001e+00
	-1.040629682460534e-15
	-5.055840305140611e-17
	-8.348824037288803e-15
	3.455450571642144e-05
	5.995146182790308e-04
	3.596309244931563e-04
	3.931963489063054e-01

 151	1.510000000000001e+00
	-1.038921278313352e-15
	-5.255997102057137e-17
	-8.353080273907370e-15
	3.630351193885047e-05
	6.021159687380942e-04
	3.656374367914568e-04
	3.931969974434728e-01

 152	1.520000000000001e+00
	-1.037206859489877e-15
	-5.464893888295177e-17
	-8.357232568331534e-15
	3.816165891327877e-05
	6.045956357943434e-04
	3.716693344260584e-04
	3.931976487206751e-01

 153	1.530000000000001e+00
	-1.035485281320124e-15
	-5.682944326377158e-17
	-8.361282421586831e-15