Title: ** sch_path: /home/andylithia/openmpw/project-yatsuhashi-chip1/xschem/gmid_test/nmos_test.sch
Date: Sun Jul 17 22:51:45  2022
Plotname: DC transfer characteristic
Flags: real
No. Variables: 8
No. Points: 181
Variables:
	0	v(v-sweep)	voltage
	1	@m.xm1.msky130_fd_pr__nfet_01v8[cgb]	capacitance
	2	@m.xm1.msky130_fd_pr__nfet_01v8[cgd]	capacitance
	3	@m.xm1.msky130_fd_pr__nfet_01v8[cgs]	capacitance
	4	@m.xm1.msky130_fd_pr__nfet_01v8[gds]	admittance
	5	@m.xm1.msky130_fd_pr__nfet_01v8[gm]	admittance
	6	i(@m.xm1.msky130_fd_pr__nfet_01v8[id])	current
	7	v(@m.xm1.msky130_fd_pr__nfet_01v8[vth])	voltage
Values:
 0	0.000000000000000e+00
	-1.169314531705131e-14
	-5.657159084378485e-18
	-2.236430070871683e-14
	5.442467536635637e-08
	1.732881417699002e-06
	2.235488349605983e-07
	1.915950820132011e-01

 1	1.000000000000000e-02
	-1.156750388793349e-14
	-5.808257584599732e-18
	-2.266177260872578e-14
	5.860143283283877e-08
	1.872059458173195e-06
	2.415644419801220e-07
	1.915950841539596e-01

 2	2.000000000000000e-02
	-1.144352337402967e-14
	-5.963495503871394e-18
	-2.295875508774388e-14
	6.308243898026221e-08
	2.022598423995765e-06
	2.610278546661690e-07
	1.915950864667735e-01

 3	3.000000000000000e-02
	-1.132122760733863e-14
	-6.122991254450611e-18
	-2.325514859484254e-14
	6.788818945224189e-08
	2.185473594798329e-06
	2.820574861106782e-07
	1.915950889657159e-01

 4	4.000000000000000e-02
	-1.120063963308279e-14
	-6.286866906279400e-18
	-2.355085424907935e-14
	7.304040202372351e-08
	2.361751163367795e-06
	3.047819494634158e-07
	1.915950916660721e-01

 5	5.000000000000000e-02
	-1.108178166811434e-14
	-6.455248312551823e-18
	-2.384577395695975e-14
	7.856207581510961e-08
	2.552597360255161e-06
	3.293410119430068e-07
	1.915950945844579e-01

 6	6.000000000000000e-02
	-1.096467506148609e-14
	-6.628265240093046e-18
	-2.413981052800252e-14
	8.447755235457491e-08
	2.759288496868952e-06
	3.558866446187343e-07
	1.915950977389312e-01

 7	7.000000000000001e-02
	-1.084934025726039e-14
	-6.806051504751590e-18
	-2.443286778813196e-14
	9.081257848533213e-08
	2.983222008479204e-06
	3.845841775506040e-07
	1.915951011491517e-01

 8	8.000000000000000e-02
	-1.073579675962240e-14
	-6.988745112021273e-18
	-2.472485069063322e-14
	9.759437111229140e-08
	3.225928583277590e-06
	4.156135707134063e-07
	1.915951048365055e-01

 9	9.000000000000000e-02
	-1.062406310035625e-14
	-7.176488403111893e-18
	-2.501566542441013e-14
	1.048516837802962e-07
	3.489085468189962e-06
	4.491708120143895e-07
	1.915951088242908e-01

 10	9.999999999999999e-02
	-1.051415680873543e-14
	-7.369428206706191e-18
	-2.530521951930073e-14
	1.126148750742897e-07
	3.774531046434989e-06
	4.854694546431426e-07
	1.915951131378941e-01

 11	1.100000000000000e-01
	-1.040609438387063e-14
	-7.567715996644693e-18
	-2.559342194821350e-14
	1.209159788301175e-07
	4.084280785749676e-06
	5.247423069618822e-07
	1.915951178049927e-01

 12	1.200000000000000e-01
	-1.029989126955022e-14
	-7.771508055795685e-18
	-2.588018322586121e-14
	1.297887761434154e-07
	4.420544659640688e-06
	5.672432891511639e-07
	1.915951228557693e-01

 13	1.300000000000000e-01
	-1.019556183160085e-14
	-7.980965646377817e-18
	-2.616541550388044e-14
	1.392688691631005e-07
	4.785746146826561e-06
	6.132494718639528e-07
	1.915951283231652e-01

 14	1.400000000000000e-01
	-1.009311933778716e-14
	-8.196255187015432e-18
	-2.644903266214114e-14
	1.493937566555110e-07
	5.182542916056540e-06
	6.630633132034943e-07
	1.915951342431390e-01

 15	1.500000000000000e-01
	-9.992575940261647e-15
	-8.417548436821525e-18
	-2.673095039606212e-14
	1.602029113251205e-07
	5.613849304547008e-06
	7.170151114180113e-07
	1.915951406549575e-01

 16	1.600000000000000e-01
	-9.893942660567635e-15
	-8.645022686813937e-18
	-2.701108629976547e-14
	1.717378588781153e-07
	6.082860698177709e-06
	7.754656917879949e-07
	1.915951476015238e-01

 17	1.700000000000000e-01
	-9.797229377190056e-15
	-8.878860958989353e-18
	-2.728935994491756e-14
	1.840422588159981e-07
	6.593079920124547e-06
	8.388093472569946e-07
	1.915951551297164e-01

 18	1.800000000000000e-01
	-9.702444815641276e-15
	-9.119252213391165e-18
	-2.756569295511965e-14
	1.971619869476979e-07
	7.148345731540868e-06
	9.074770534090739e-07
	1.915951632907766e-01

 19	1.900000000000000e-01
	-9.609596541061103e-15
	-9.366391563524912e-18
	-2.784000907572798e-14
	2.111452196105772e-07
	7.752863542991723e-06
	9.819399794090453e-07
	1.915951721407337e-01

 20	2.000000000000000e-01
	-9.518690953302295e-15
	-9.620480500493362e-18
	-2.811223423900076e-14
	2.260425195931958e-07
	8.411238428328208e-06
	1.062713317474972e-06
	1.915951817408469e-01

 21	2.100000000000000e-01
	-9.429733284466563e-15
	-9.881727126238974e-18
	-2.838229662448306e-14
	2.419069237557163e-07
	9.128510523278569e-06
	1.150360454323451e-06
	1.915951921581080e-01

 22	2.200000000000001e-01
	-9.342727598847716e-15
	-1.015034639629925e-17
	-2.865012671456013e-14
	2.587940323475454e-07
	9.910192878941988e-06
	1.245497508792329e-06
	1.915952034657887e-01

 23	2.300000000000001e-01
	-9.257676795232666e-15
	-1.042656037250722e-17
	-2.891565734512613e-14
	2.767621000262342e-07
	1.076231182529190e-05
	1.348798260473941e-06
	1.915952157440126e-01

 24	2.400000000000001e-01
	-9.174582611504478e-15
	-1.071059848607741e-17
	-2.917882375132909e-14
	2.958721285866764e-07
	1.169144988141211e-05
	1.460999494652366e-06
	1.915952290804047e-01

 25	2.500000000000001e-01
	-9.093445631485130e-15
	-1.100269781155473e-17
	-2.943956360837365e-14
	3.161879614156800e-07
	1.270479122720237e-05
	1.582906789098294e-06
	1.915952435707714e-01

 26	2.600000000000001e-01
	-9.014265293950462e-15
	-1.130310335211226e-17
	-2.969781706737458e-14
	3.377763796936627e-07
	1.381016972537108e-05
	1.715400768294119e-06
	1.915952593198525e-01

 27	2.700000000000001e-01
	-8.937039903744032e-15
	-1.161206833672029e-17
	-2.995352678627421e-14
	3.607072003730819e-07
	1.501611945240226e-05
	1.859443850402129e-06
	1.915952764421171e-01

 28	2.800000000000001e-01
	-8.861766644911982e-15
	-1.192985452972449e-17
	-3.020663795584884e-14
	3.850533759719379e-07
	1.633192766254472e-05
	2.016087511703916e-06
	1.915952950626324e-01

 29	2.900000000000001e-01
	-8.788441595776265e-15
	-1.225673255340403e-17
	-3.045709832084601e-14
	4.108910962307825e-07
	1.776769006948237e-05
	2.186480092284846e-06
	1.915953153179938e-01

 30	3.000000000000001e-01
	-8.717059745860014e-15
	-1.259298222410903e-17
	-3.070485819630858e-14
	4.382998916930530e-07
	1.933436828598794e-05
	2.371875165364163e-06
	1.915953373573192e-01

 31	3.100000000000001e-01
	-8.647615014574546e-15
	-1.293889290259886e-17
	-3.094987047915444e-14
	4.673627392813857e-07
	2.104384921237117e-05
	2.573640490828052e-06
	1.915953613433219e-01

 32	3.200000000000001e-01
	-8.580100271574777e-15
	-1.329476385924716e-17
	-3.119209065509567e-14
	4.981661699574365e-07
	2.290900610982161e-05
	2.793267571159621e-06
	1.915953874534331e-01

 33	3.300000000000001e-01
	-8.514507358687420e-15
	-1.366090465479626e-17
	-3.143147680099048e-14
	5.308003785691392e-07
	2.494376103477181e-05
	3.032381825020414e-06
	1.915954158810307e-01

 34	3.400000000000001e-01
	-8.450827113313369e-15
	-1.403763553739369e-17
	-3.166798958273603e-14
	5.653593360085652e-07
	2.716314824527855e-05
	3.292753390175394e-06
	1.915954468367194e-01

 35	3.500000000000001e-01
	-8.389049393204307e-15
	-1.442528785667065e-17
	-3.190159224881962e-14
	6.019409038251428e-07
	2.958337812029094e-05
	3.576308563211590e-06
	1.915954805496878e-01

 36	3.600000000000002e-01
	-8.329163102512733e-15
	-1.482420449566148e-17
	-3.213225061965466e-14
	6.406469514633683e-07
	3.222190105787656e-05
	3.885141878533322e-06
	1.915955172691573e-01

 37	3.700000000000002e-01
	-8.271156219012203e-15
	-1.523474032140970e-17
	-3.235993307284080e-14
	6.815834763227290e-07
	3.509747073948804e-05
	4.221528823382282e-06
	1.915955572658870e-01

 38	3.800000000000002e-01
	-8.215015822386216e-15
	-1.565726265514007e-17
	-3.258461052449131e-14
	7.248607268692107e-07
	3.823020606475867e-05
	4.587939179083072e-06
	1.915956008337721e-01

 39	3.900000000000002e-01
	-8.160728123482185e-15
	-1.609215176293065e-17
	-3.280625640678244e-14
	7.705933290647238e-07
	4.164165097597618e-05
	4.987050971330070e-06
	1.915956482914982e-01

 40	4.000000000000002e-01
	-8.108278494428415e-15
	-1.653980136785785e-17
	-3.302484664188387e-14
	8.189004164224701e-07
	4.535483130425913e-05
	5.421765004079890e-06
	1.915956999842759e-01

 41	4.100000000000002e-01
	-8.057651499512411e-15
	-1.700061918464150e-17
	-3.324035961243643e-14
	8.699057640441097e-07
	4.939430768179739e-05
	5.895219942488444e-06
	1.915957562856368e-01

 42	4.200000000000002e-01
	-8.008830926719805e-15
	-1.747502747787188e-17
	-3.345277612874744e-14
	9.237379270490370e-07
	5.378622347773485e-05
	6.410807900331458e-06
	1.915958175992913e-01

 43	4.300000000000002e-01
	-7.961799819835033e-15
	-1.796346364494963e-17
	-3.366207939287857e-14
	9.805303838682174e-07
	5.855834663104214e-05
	6.972190476490352e-06
	1.915958843610388e-01

 44	4.400000000000002e-01
	-7.916540511005715e-15
	-1.846638082493498e-17
	-3.386825495980572e-14
	1.040421684945543e-06
	6.374010417393645e-05
	7.583315173406431e-06
	1.915959570407189e-01

 45	4.500000000000002e-01
	-7.873034653676411e-15
	-1.898424853455745e-17
	-3.407129069582976e-14
	1.103555607470136e-06
	6.936260816617270e-05
	8.248432117959614e-06
	1.915960361442107e-01

 46	4.600000000000002e-01
	-7.831263255797813e-15
	-1.951755333270987e-17
	-3.427117673442245e-14
	1.170081316853936e-06
	7.545867169619550e-05
	8.972110992092832e-06
	1.915961222154426e-01

 47	4.700000000000003e-01
	-7.791206713221357e-15
	-2.006679951481071e-17
	-3.446790542969077e-14
	1.240153535771962e-06
	8.206281355221040e-05
	9.759258066777428e-06
	1.915962158384215e-01

 48	4.800000000000003e-01
	-7.752844843191874e-15
	-2.063250983849802e-17
	-3.466147130764255e-14
	1.313932721699087e-06
	8.921125012741358e-05
	1.061513321873047e-05
	1.915963176392567e-01

 49	4.900000000000003e-01
	-7.716156917853429e-15
	-2.121522628218580e-17
	-3.485187101543793e-14
	1.391585254008083e-06
	9.694187310172677e-05
	1.154536679480430e-05
	1.915964282881750e-01

 50	5.000000000000002e-01
	-7.681121697687005e-15
	-2.181551083810717e-17
	-3.503910326880844e-14
	1.473283631841138e-06
	1.052942114403067e-04
	1.255597617435770e-05
	1.915965485014803e-01

 51	5.100000000000002e-01
	-7.647717464802448e-15
	-2.243394634153241e-17
	-3.522316879782373e-14
	1.559206684131665e-06
	1.143093762697455e-04
	1.365338186539655e-05
	1.915966790434775e-01

 52	5.200000000000002e-01
	-7.615922056009748e-15
	-2.307113733796414e-17
	-3.540407029118467e-14
	1.649539793337725e-06
	1.240299872391457e-04
	1.484442295608930e-05
	1.915968207283010e-01

 53	5.300000000000002e-01
	-7.585712895599344e-15
	-2.372771099017881e-17
	-3.558181233921706e-14
	1.744475134652998e-06
	1.345000790477819e-04
	1.613637172967710e-05
	1.915969744216590e-01

 54	5.400000000000003e-01
	-7.557067027763814e-15
	-2.440431802710412e-17
	-3.575640137573880e-14
	1.844211932689150e-06
	1.457649869264773e-04
	1.753694723812315e-05
	1.915971410424393e-01

 55	5.500000000000003e-01
	-7.529961148598292e-15
	-2.510163373661295e-17
	-3.592784561896646e-14
	1.948956737874562e-06
	1.578712099981103e-04
	1.905432761838029e-05
	1.915973215641752e-01

 56	5.600000000000003e-01
	-7.504371637619497e-15
	-2.582035900442802e-17
	-3.609615501162618e-14
	2.058923725091908e-06
	1.708662516157328e-04
	2.069716092525954e-05
	1.915975170163244e-01

 57	5.700000000000003e-01
	-7.480274588748197e-15
	-2.656122140144598e-17
	-3.626134116042619e-14
	2.174335017381287e-06
	1.847984359856339e-04
	2.247457424689283e-05
	1.915977284853487e-01

 58	5.800000000000003e-01
	-7.457645840703135e-15
	-2.732497632190871e-17
	-3.642341727504468e-14
	2.295421037868919e-06
	1.997167006279240e-04
	2.439618086307322e-05
	1.915979571155642e-01

 59	5.900000000000003e-01
	-7.436461006758699e-15
	-2.811240817498669e-17
	-3.658239810678083e-14
	2.422420893444621e-06
	2.156703645084974e-04
	2.647208520368348e-05
	1.915982041097176e-01

 60	6.000000000000003e-01
	-7.416695503821880e-15
	-2.892433163245575e-17
	-3.673829988701137e-14
	2.555582794106182e-06
	2.327088719924041e-04
	2.871288536434722e-05
	1.915984707292745e-01

 61	6.100000000000003e-01
	-7.398324580788735e-15
	-2.976159293531169e-17
	-3.689114026558790e-14
	2.695164512316148e-06
	2.508815131175264e-04
	3.112967293968976e-05
	1.915987582943987e-01

 62	6.200000000000003e-01
	-7.381323346143246e-15
	-3.062507126230202e-17
	-3.704093824930624e-14
	2.841433887178531e-06
	2.702371210658940e-04
	3.373402994150716e-05
	1.915990681835634e-01

 63	6.300000000000003e-01
	-7.365666794766162e-15
	-3.151568016351216e-17
	-3.718771414057013e-14
	2.994669378739122e-06
	2.908237481134467e-04
	3.653802257995445e-05
	1.915994018328147e-01

 64	6.400000000000003e-01
	-7.351329833923722e-15
	-3.243436906232413e-17
	-3.733148947636789e-14
	3.155160678246642e-06
	3.126883217623380e-04
	3.955419170084484e-05
	1.915997607346133e-01

 65	6.500000000000004e-01
	-7.338287308411049e-15
	-3.338212482921902e-17
	-3.747228696767143e-14
	3.323209380781964e-06
	3.358762831961213e-04
	4.279553969142256e-05
	1.916001464362733e-01

 66	6.600000000000004e-01
	-7.326514024827064e-15
	-3.435997343109696e-17
	-3.761013043936305e-14
	3.499129727271719e-06
	3.604312106397901e-04
	4.627551369065593e-05
	1.916005605379499e-01

 67	6.700000000000004e-01
	-7.315984774961805e-15
	-3.536898165997291e-17
	-3.774504477078684e-14
	3.683249423551755e-06
	3.863944306449608e-04
	5.000798496819218e-05
	1.916010046901837e-01

 68	6.800000000000004e-01
	-7.306674358279786e-15
	-3.641025894511821e-17
	-3.787705583701607e-14
	3.875910544836496e-06
	4.138046207458068e-04
	5.400722436853656e-05
	1.916014805909693e-01

 69	6.900000000000004e-01
	-7.298557603486007e-15
	-3.748495925292847e-17
	-3.800619045092168e-14
	4.077470534684649e-06
	4.426974073335306e-04
	5.828787375359142e-05
	1.916019899823516e-01

 70	7.000000000000004e-01
	-7.291609389164295e-15
	-3.859428307902892e-17
	-3.813247630611933e-14
	4.288303308332551e-06
	4.731049629653637e-04
	6.286491341712256e-05
	1.916025346465432e-01

 71	7.100000000000004e-01
	-7.285804663479950e-15
	-3.973947953736952e-17
	-3.825594192086759e-14
	4.508800471096896e-06
	5.050556076474462e-04
	6.775362548861931e-05
	1.916031164015787e-01

 72	7.200000000000004e-01
	-7.281118462941554e-15
	-4.092184855131573e-17
	-3.837661658298295e-14
	4.739372663432930e-06
	5.385734188985763e-04
	7.296955339087254e-05
	1.916037370964838e-01

 73	7.300000000000004e-01
	-7.277525930218954e-15
	-4.214274315201123e-17
	-3.849453029583126e-14
	4.980451045178313e-06
	5.736778556033658e-04
	7.852845746480343e-05
	1.916043986059987e-01

 74	7.400000000000004e-01
	-7.275002331016877e-15
	-4.340357188955930e-17
	-3.860971372544972e-14
	5.232488932522218e-06
	6.103834007890961e-04
	8.444626692590731e-05
	1.916051028248733e-01

 75	7.500000000000004e-01
	-7.273523070005429e-15
	-4.470580136288242e-17
	-3.872219814884761e-14
	5.495963602324717e-06
	6.486992285022264e-04
	9.073902836836209e-05
	1.916058516617475e-01

 76	7.600000000000005e-01
	-7.273063705810981e-15
	-4.605095887442942e-17
	-3.883201540352834e-14
	5.771378279580889e-06
	6.886288999109364e-04
	9.742285108446959e-05
	1.916066470326458e-01

 77	7.700000000000005e-01
	-7.273599965072532e-15
	-4.744063521621300e-17
	-3.893919783827079e-14
	6.059264325091550e-06
	7.301700936141375e-04
	1.045138495177231e-04
	1.916074908541578e-01

 78	7.800000000000005e-01
	-7.275107755570292e-15
	-4.887648759403918e-17
	-3.904377826520147e-14
	6.360183641783687e-06
	7.733143748923352e-04
	1.120280832164737e-04
	1.916083850362972e-01

 79	7.900000000000005e-01
	-7.277563178434687e-15
	-5.036024269713400e-17
	-3.914578991318622e-14
	6.674731319635010e-06
	8.180470082905072e-04
	1.199814947008417e-04
	1.916093314751169e-01

 80	8.000000000000005e-01
	-7.280942539445777e-15
	-5.189369992075617e-17
	-3.924526638256300e-14
	7.003538540821074e-06
	8.643468174801170e-04
	1.283898456972448e-04
	1.916103320451556e-01

 81	8.100000000000005e-01
	-7.285222359433114e-15
	-5.347873474982017e-17
	-3.934224160123575e-14
	7.347275768545419e-06
	9.121860958109483e-04
	1.372686522317259e-04
	1.916113885917092e-01

 82	8.200000000000005e-01
	-7.290379383788979e-15
	-5.511730231194240e-17
	-3.943674978214195e-14
	7.706656245059488e-06
	9.615305703408507e-04
	1.466331191042166e-04
	1.916125029230593e-01

 83	8.300000000000005e-01
	-7.296390591106714e-15
	-5.681144110880644e-17
	-3.952882538210634e-14
	8.082439826666071e-06
	1.012339421432883e-03
	1.564980742902334e-04
	1.916136768026730e-01

 84	8.400000000000005e-01
	-7.303233200958784e-15
	-5.856327693519619e-17
	-3.961850306208480e-14
	8.475437186060817e-06
	1.064565359246684e-03
	1.668779038334729e-04
	1.916149119414711e-01

 85	8.500000000000005e-01
	-7.310884680828097e-15
	-6.037502699554628e-17
	-3.970581764880416e-14
	8.886514415248347e-06
	1.118154757639219e-03
	1.777864878019011e-04
	1.916162099902104e-01

 86	8.600000000000005e-01
	-7.319322752207938e-15
	-6.224900422838577e-17
	-3.979080409779565e-14
	9.316598065514905e-06
	1.173047845145030e-03
	1.892371378806874e-04
	1.916175725320681e-01

 87	8.700000000000006e-01
	-7.328525395885623e-15
	-6.418762184958496e-17
	-3.987349745781981e-14
	9.766680664605846e-06
	1.229178951845920e-03
	2.012425371675698e-04
	1.916190010754789e-01

 88	8.800000000000006e-01
	-7.338470856425606e-15
	-6.619339812590883e-17
	-3.995393283667593e-14
	1.023782675540139e-05
	1.286476810082994e-03
	2.138146827198729e-04
	1.916204970472921e-01

 89	8.900000000000006e-01
	-7.349137645867944e-15
	-6.826896139093576e-17
	-4.003214536838765e-14
	1.073117950507245e-05
	1.344864906128640e-03
	2.269648313775022e-04
	1.916220617863376e-01

 90	9.000000000000006e-01
	-7.360504546657942e-15
	-7.041705531609118e-17
	-4.010817018175264e-14
	1.124796793900728e-05
	1.404261879141703e-03
	2.407034493532541e-04
	1.916236965374020e-01

 91	9.100000000000006e-01
	-7.372550613823373e-15
	-7.264054445012153e-17
	-4.018204237024265e-14
	1.178951485980431e-05
	1.464581962992477e-03
	2.550401660410511e-04
	1.916254024457405e-01

 92	9.200000000000006e-01
	-7.385255176414949e-15
	-7.494242004107996e-17
	-4.025379696323789e-14
	1.235724551842221e-05
	1.525735465882483e-03
	2.699837324450552e-04
	1.916271805521176e-01

 93	9.300000000000006e-01
	-7.398597838225623e-15
	-7.732580615556692e-17
	-4.032346889857791e-14
	1.295269711225852e-05
	1.587629282111077e-03
	2.855419845787545e-04
	1.916290317884367e-01

 94	9.400000000000006e-01
	-7.412558477805152e-15
	-7.979396611071228e-17
	-4.039109299640761e-14
	1.357752919360284e-05
	1.650167429868952e-03
	3.017218121240261e-04
	1.916309569740082e-01

 95	9.500000000000006e-01
	-7.427117247783944e-15
	-8.235030923515942e-17
	-4.045670393429859e-14
	1.423353508170034e-05
	1.713251608577188e-03
	3.185291325770016e-04
	1.916329568124519e-01

 96	9.600000000000006e-01
	-7.442254573521980e-15
	-8.499839797608805e-17
	-4.052033622362060e-14
	1.492265438269232e-05
	1.776781769045425e-03
	3.359688710412779e-04
	1.916350318892948e-01

 97	9.700000000000006e-01
	-7.457951151096578e-15
	-8.774195537015448e-17
	-4.058202418713916e-14
	1.564698673412008e-05
	1.840656689597987e-03
	3.540449457610217e-04
	1.916371826702301e-01

 98	9.800000000000006e-01
	-7.474187944642982e-15
	-9.058487289704360e-17
	-4.064180193781290e-14
	1.640880690463661e-05
	1.904774551311515e-03
	3.727602594177798e-04
	1.916394095000841e-01

 99	9.900000000000007e-01
	-7.490946183060760e-15
	-9.353121873523158e-17
	-4.069970335876280e-14
	1.721058139524271e-05
	1.969033505619877e-03
	3.921166961467762e-04
	1.916417126024387e-01

 100	1.000000000000001e+00
	-7.508207356098823e-15
	-9.658524644041212e-17
	-4.075576208438489e-14
	1.805498670592371e-05
	2.033332227764548e-03
	4.121151241619890e-04
	1.916440920799556e-01

 101	1.010000000000001e+00
	-7.525953209830214e-15
	-9.975140406799299e-17
	-4.081001148257699e-14
	1.894492945121722e-05
	2.097570449894211e-03
	4.327554038157839e-04
	1.916465479153282e-01

 102	1.020000000000001e+00
	-7.544165741528045e-15
	-1.030343437619821e-16
	-4.086248463804839e-14
	1.988356853018627e-05
	2.161649468033470e-03
	4.540364008589368e-04
	1.916490799728511e-01

 103	1.030000000000001e+00
	-7.562827193952507e-15
	-1.064389318335227e-16
	-4.091321433668138e-14
	2.087433958073088e-05
	2.225472617635547e-03
	4.759560046116101e-04
	1.916516880005903e-01

 104	1.040000000000001e+00
	-7.581920049058072e-15
	-1.099702593533184e-16
	-4.096223305091254e-14
	2.192098197536682e-05
	2.288945712993111e-03
	4.985111507058966e-04
	1.916543716330894e-01

 105	1.050000000000001e+00
	-7.601427021129269e-15
	-1.136336532831439e-16
	-4.100957292610109e-14
	2.302756864575097e-05
	2.351977446389511e-03
	5.216978480164147e-04
	1.916571303945765e-01

 106	1.060000000000001e+00
	-7.621331049352347e-15
	-1.174346881726000e-16
	-4.105526576785060e-14
	2.419853905655532e-05
	2.414479743514231e-03
	5.455112093576128e-04
	1.916599637026219e-01

 107	1.070000000000001e+00
	-7.641615289829111e-15
	-1.213791984482355e-16
	-4.109934303025121e-14
	2.543873568597427e-05
	2.476368072325793e-03
	5.699454854951251e-04
	1.916628708721933e-01

 108	1.080000000000001e+00
	-7.662263107038332e-15
	-1.254732913231241e-16
	-4.114183580500759e-14
	2.675344441034315e-05
	2.537561703207576e-03
	5.949941019938829e-04
	1.916658511200394e-01

 109	1.090000000000001e+00
	-7.683258064749033e-15
	-1.297233603558742e-16
	-4.118277481141882e-14
	2.814843923412613e-05
	2.597983918912503e-03
	6.206496984075189e-04
	1.916689035693638e-01

 110	1.100000000000001e+00
	-7.704583916389191e-15
	-1.341360996889751e-16
	-4.122219038717528e-14
	2.963003185388692e-05
	2.657562173419466e-03
	6.469041693019810e-04
	1.916720272547069e-01

 111	1.110000000000001e+00
	-7.726224594872152e-15
	-1.387185189971824e-16
	-4.126011247993847e-14
	3.120512659560035e-05
	2.716228199415117e-03
	6.737487066005482e-04
	1.916752211270033e-01

 112	1.120000000000001e+00
	-7.748164201881819e-15
	-1.434779591775195e-16
	-4.129657063966871e-14
	3.288128131843710e-05
	2.773918064661951e-03
	7.011738427376941e-04
	1.916784840587021e-01

 113	1.130000000000001e+00
	-7.770386996617694e-15
	-1.484221088130567e-16
	-4.133159401166633e-14
	3.466677493423334e-05
	2.830572178007710e-03
	7.291694941142901e-04
	1.916818148489559e-01

 114	1.140000000000001e+00
	-7.792877383998831e-15
	-1.535590214433226e-16
	-4.136521133029156e-14
	3.657068224920476e-05
	2.886135246230260e-03
	7.577250043567915e-04
	1.916852122287734e-01

 115	1.150000000000001e+00
	-7.815619902325538e-15
	-1.588971336747187e-16
	-4.139745091332916e-14
	3.860295689138696e-05
	2.940556183291486e-03
	7.868291868969447e-04
	1.916886748660851e-01

 116	1.160000000000001e+00
	-7.838599210396613e-15
	-1.644452841645610e-16
	-4.142834065696315e-14
	4.077452314143037e-05
	2.993787973894670e-03
	8.164703664060915e-04
	1.916922013706746e-01

 117	1.170000000000001e+00
	-7.861800074079758e-15
	-1.702127335126642e-16
	-4.145790803132756e-14
	4.309737753238094e-05
	3.045787493505262e-03
	8.466364186385478e-04
	1.916957902989323e-01

 118	1.180000000000001e+00
	-7.885207352330918e-15
	-1.762091850942921e-16
	-4.148618007660031e-14
	4.558470112130764e-05
	3.096515287210643e-03
	8.773148082613566e-04
	1.916994401583515e-01

 119	1.190000000000001e+00
	-7.908805982659495e-15
	-1.824448068680976e-16
	-4.151318339960552e-14
	4.825098335580287e-05
	3.145935309968540e-03
	9.084926242723943e-04
	1.917031494117509e-01

 120	1.200000000000001e+00
	-7.932580966034578e-15
	-1.889302541921173e-16
	-4.153894417089238e-14
	5.111215845309455e-05
	3.194014630939380e-03
	9.401566126351778e-04
	1.917069164811598e-01

 121	1.210000000000001e+00
	-7.956517351227691e-15
	-1.956766936800607e-16
	-4.156348812225722e-14
	5.418575516765573e-05
	3.240723104729247e-03
	9.722932057862598e-04
	1.917107397513284e-01

 122	1.220000000000001e+00
	-7.980600218588207e-15
	-2.026958281289000e-16
	-4.158684054467610e-14
	5.749106073036724e-05
	3.286033012507537e-03
	1.004888548700183e-03
	1.917146175728358e-01

 123	1.230000000000001e+00
	-8.004814663246211e-15
	-2.099999225471708e-16
	-4.160902628661692e-14
	6.104929957985880e-05
	3.329918676130106e-03
	1.037928521227313e-03
	1.917185482647448e-01

 124	1.240000000000001e+00
	-8.029145777739747e-15
	-2.176018313112257e-16
	-4.163006975269846e-14
	6.488382725103965e-05
	3.372356048622756e-03
	1.071398756452270e-03
	1.917225301167955e-01

 125	1.250000000000001e+00
	-8.053578634062775e-15
	-2.255150264740792e-16
	-4.164999490266582e-14
	6.902033940746276e-05
	3.413322284695787e-03
	1.105284654855723e-03
	1.917265613910898e-01

 126	1.260000000000001e+00
	-8.078098265132026e-15
	-2.337536272481498e-16
	-4.166882525065074e-14
	7.348709546661994e-05
	3.452795295406053e-03
	1.139571394101037e-03
	1.917306403232558e-01

 127	1.270000000000001e+00
	-8.102689645671866e-15
	-2.423324306792397e-16
	-4.168658386468751e-14
	7.831515552650565e-05
	3.490753291704398e-03
	1.174243934311348e-03
	1.917347651230776e-01

 128	1.280000000000001e+00
	-8.127337672518505e-15
	-2.512669435242966e-16
	-4.170329336645291e-14
	8.353862830583217e-05
	3.527174322453655e-03
	1.209287018753954e-03
	1.917389339745869e-01

 129	1.290000000000001e+00
	-8.152027144346478e-15
	-2.605734153399339e-16
	-4.171897593120170e-14
	8.919492649953760e-05
	3.562035813630499e-03
	1.244685169910135e-03
	1.917431450355878e-01

 130	1.300000000000001e+00
	-8.176742740823904e-15
	-2.702688727819226e-16
	-4.173365328786745e-14
	9.532502426012985e-05
	3.595314116889192e-03
	1.280422680982461e-03
	1.917473964366541e-01

 131	1.310000000000001e+00
	-8.201469001205543e-15
	-2.803711551082482e-16
	-4.174734671930031e-14
	1.019737093760763e-04
	3.626984077522280e-03
	1.316483602982253e-03
	1.917516862795974e-01

 132	1.320000000000001e+00
	-8.226190302377041e-15
	-2.908989508694249e-16
	-4.176007706261226e-14
	1.091898200670909e-04
	3.657018634146270e-03
	1.352851727651241e-03
	1.917560126354322e-01

 133	1.330000000000001e+00
	-8.250890836368615e-15
	-3.018718357594096e-16
	-4.177186470960165e-14
	1.170264531036919e-04
	3.685388465192528e-03
	1.389510566607686e-03
	1.917603735419007e-01

 134	1.340000000000001e+00
	-8.275554587360924e-15
	-3.133103115889353e-16
	-4.178272960722876e-14
	1.255411261668108e-04
	3.712061700484504e-03
	1.426443327273678e-03
	1.917647670006108e-01

 135	1.350000000000001e+00
	-8.300165308213297e-15
	-3.252358463297454e-16
	-4.179269125811372e-14
	1.347958730281061e-04
	3.737003719758704e-03
	1.463632886340138e-03
	1.917691909738860e-01

 136	1.360000000000001e+00
	-8.324706496550170e-15
	-3.376709151633393e-16
	-4.180176872102980e-14
	1.448572453738087e-04
	3.760177063783671e-03
	1.501061761763481e-03
	1.917736433814285e-01

 137	1.370000000000001e+00
	-8.349161370451514e-15
	-3.506390424509951e-16
	-4.180998061136283e-14
	1.557961901585219e-04
	3.781541487469125e-03
	1.538712084562421e-03
	1.917781220969776e-01

 138	1.380000000000001e+00
	-8.373512843799847e-15
	-3.641648445233126e-16
	-4.181734510151037e-14
	1.676877666739372e-04
	3.801054187605646e-03
	1.576565571994126e-03
	1.917826249451089e-01

 139	1.390000000000001e+00
	-8.397743501349325e-15
	-3.782740731664481e-16
	-4.182387992119186e-14
	1.806106636780464e-04
	3.818670240005258e-03
	1.614603504026114e-03
	1.917871496984543e-01

 140	1.400000000000001e+00
	-8.421835573590970e-15
	-3.929936596595089e-16
	-4.182960235764321e-14
	1.946464748319026e-04
	3.834343280994296e-03
	1.652806705370661e-03
	1.917916940755519e-01

 141	1.410000000000001e+00
	-8.445770911503503e-15
	-4.083517591919442e-16
	-4.183452925566776e-14
	2.098786914714482e-04
	3.848026465398821e-03
	1.691155535685829e-03
	1.917962557396937e-01

 142	1.420000000000001e+00
	-8.469530961290599e-15
	-4.243777954621254e-16
	-4.183867701751738e-14
	2.263913767608269e-04
	3.859673726182332e-03
	1.729629890837149e-03
	1.918008322990737e-01

 143	1.430000000000001e+00
	-8.493096739222472e-15
	-4.411025052277169e-16
	-4.184206160257642e-14
	2.442674959906609e-04
	3.869241348549634e-03
	1.768209218308051e-03
	1.918054213086279e-01

 144	1.440000000000001e+00
	-8.516448806714166e-15
	-4.585579825452478e-16
	-4.184469852682400e-14
	2.635868955348308e-04
	3.876689852646979e-03
	1.806872549886897e-03
	1.918100202739194e-01

 145	1.450000000000001e+00
	-8.539567245792186e-15
	-4.767777224000802e-16
	-4.184660286204917e-14
	2.844239486217448e-04
	3.881986153538033e-03
	1.845598554577746e-03
	1.918146266574443e-01

 146	1.460000000000001e+00
	-8.562431635118019e-15
	-4.957966633887384e-16
	-4.184778923479712e-14
	3.068449195362957e-04
	3.885105935446291e-03
	1.884365614215308e-03
	1.918192378876114e-01

 147	1.470000000000001e+00
	-8.585021026758633e-15
	-5.156512290727237e-16
	-4.184827182502473e-14
	3.309051376307672e-04
	3.886036141222571e-03
	1.923151923456815e-03
	1.918238513706579e-01

 148	1.480000000000001e+00
	-8.607313923912793e-15
	-5.363793675773093e-16
	-4.184806436444969e-14
	3.566461152086400e-04
	3.884777441191667e-03
	1.961935614649588e-03
	1.918284645054826e-01

 149	1.490000000000001e+00
	-8.629288259826686e-15
	-5.580205889586321e-16
	-4.184718013457729e-14
	3.840927835562566e-04
	3.881346513199624e-03
	2.000694906547825e-03
	1.918330747013547e-01

 150	1.500000000000001e+00
	-8.650921378152217e-15
	-5.806159998097866e-16
	-4.184563196439701e-14
	4.132510520513286e-04
	3.875777944311379e-03
	2.039408274054624e-03
	1.918376793980830e-01

 151	1.510000000000001e+00
	-8.672190015029447e-15
	-6.042083345193694e-16
	-4.184343222774265e-14
	4.441059085716873e-04
	3.868125560894246e-03
	2.078054634236246e-03
	1.918422760881558e-01

 152	1.520000000000001e+00
	-8.693070283196504e-15
	-6.288419825366463e-16
	-4.184059284031834e-14
	4.766202684524914e-04
	3.858463013169982e-03
	2.116613542002701e-03
	1.918468623400081e-01

 153	1.530000000000001e+00
	-8.713537658460281e-15
	-6.545630109349084e-16
	-4.183712525639500e-14