Title: ** sch_path: /home/andylithia/openmpw/project-yatsuhashi-chip1/xschem/gmid_test/nmos_test.sch
Date: Sun Jul 17 22:51:45  2022
Plotname: DC transfer characteristic
Flags: real
No. Variables: 8
No. Points: 181
Variables:
	0	v(v-sweep)	voltage
	1	@m.xm1.msky130_fd_pr__nfet_01v8[cgb]	capacitance
	2	@m.xm1.msky130_fd_pr__nfet_01v8[cgd]	capacitance
	3	@m.xm1.msky130_fd_pr__nfet_01v8[cgs]	capacitance
	4	@m.xm1.msky130_fd_pr__nfet_01v8[gds]	admittance
	5	@m.xm1.msky130_fd_pr__nfet_01v8[gm]	admittance
	6	i(@m.xm1.msky130_fd_pr__nfet_01v8[id])	current
	7	v(@m.xm1.msky130_fd_pr__nfet_01v8[vth])	voltage
Values:
 0	0.000000000000000e+00
	-1.203753530038830e-14
	-6.161329401499744e-18
	-2.358197748481827e-14
	3.285054827145762e-08
	1.060642170284275e-06
	1.366532491086242e-07
	1.818607224182730e-01

 1	1.000000000000000e-02
	-1.190721776159713e-14
	-6.326844954444981e-18
	-2.389189661352651e-14
	3.536399553763998e-08
	1.146118846526821e-06
	1.476814335238159e-07
	1.818607237440758e-01

 2	2.000000000000000e-02
	-1.177864764927006e-14
	-6.496935414257892e-18
	-2.420121363907438e-14
	3.805964325999154e-08
	1.238622018301387e-06
	1.595990306637328e-07
	1.818607251768105e-01

 3	3.000000000000000e-02
	-1.165184929544067e-14
	-6.671733371132211e-18
	-2.450982524037944e-14
	4.094967025212327e-08
	1.338761513513424e-06
	1.724793088492840e-07
	1.818607267252916e-01

 4	4.000000000000000e-02
	-1.152684617274980e-14
	-6.851375579040910e-18
	-2.481762891030634e-14
	4.404697208822969e-08
	1.447204645101205e-06
	1.864019174809158e-07
	1.818607283990920e-01

 5	5.000000000000000e-02
	-1.140366085283925e-14
	-7.036003101177770e-18
	-2.512452307670884e-14
	4.736519495206475e-08
	1.564682006475327e-06
	2.014534903994603e-07
	1.818607302086322e-01

 6	6.000000000000000e-02
	-1.128231496707701e-14
	-7.225761461066958e-18
	-2.543040722121643e-14
	5.091877046279966e-08
	1.691993846189292e-06
	2.177283100561366e-07
	1.818607321652499e-01

 7	7.000000000000001e-02
	-1.116282916968538e-14
	-7.420800799580314e-18
	-2.573518199548289e-14
	5.472295146798447e-08
	1.830017072036874e-06
	2.353290385325186e-07
	1.818607342812910e-01

 8	8.000000000000000e-02
	-1.104522310333380e-14
	-7.621276038120080e-18
	-2.603874933462819e-14
	5.879384879199835e-08
	1.979712937487341e-06
	2.543675219669085e-07
	1.818607365702061e-01

 9	9.000000000000000e-02
	-1.092951536725166e-14
	-7.827347048233389e-18
	-2.634101256761324e-14
	6.314846892666279e-08
	2.142135465950675e-06
	2.749656754856864e-07
	1.818607390466575e-01

 10	9.999999999999999e-02
	-1.081572348790715e-14
	-8.039178827939606e-18
	-2.664187652430000e-14
	6.780475264908133e-08
	2.318440670751420e-06
	2.972564563052048e-07
	1.818607417266344e-01

 11	1.100000000000000e-01
	-1.070386389229023e-14
	-8.256941685061747e-18
	-2.694124763896191e-14
	7.278161455029671e-08
	2.509896630812781e-06
	3.213849332593897e-07
	1.818607446275836e-01

 12	1.200000000000000e-01
	-1.059395188382962e-14
	-8.480811427871492e-18
	-2.723903405002255e-14
	7.809898345704445e-08
	2.717894483834625e-06
	3.475094616174069e-07
	1.818607477685527e-01

 13	1.300000000000000e-01
	-1.048600162096470e-14
	-8.710969563367640e-18
	-2.753514569581576e-14
	8.377784372774785e-08
	2.943960400102549e-06
	3.758029726807297e-07
	1.818607511703404e-01

 14	1.400000000000000e-01
	-1.038002609838498e-14
	-8.947603503526531e-18
	-2.782949440617469e-14
	8.984027740291172e-08
	3.189768600892149e-06
	4.064543882847801e-07
	1.818607548556682e-01

 15	1.500000000000000e-01
	-1.027603713094127e-14
	-9.190906779875915e-18
	-2.812199398967296e-14
	9.630950718930476e-08
	3.457155485627053e-06
	4.396701709714508e-07
	1.818607588493726e-01

 16	1.600000000000000e-01
	-1.017404534022408e-14
	-9.441079266765340e-18
	-2.841256031635833e-14
	1.032099402567790e-07
	3.748134931392928e-06
	4.756760212382642e-07
	1.818607631785980e-01

 17	1.700000000000000e-01
	-1.007406014379685e-14
	-9.698327413717659e-18
	-2.870111139583389e-14
	1.105672128261725e-07
	4.064914826972635e-06
	5.147187338992285e-07
	1.818607678730344e-01

 18	1.800000000000000e-01
	-9.976089747062841e-15
	-9.962864487271171e-18
	-2.898756745056145e-14
	1.184082355267024e-07
	4.409914901116947e-06
	5.570682262028820e-07
	1.818607729651497e-01

 19	1.900000000000000e-01
	-9.880141137737314e-15
	-1.023491082273875e-17
	-2.927185098427640e-14
	1.267612395013053e-07
	4.785785901146241e-06
	6.030197509326259e-07
	1.818607784904638e-01

 20	2.000000000000000e-01
	-9.786220082888191e-15
	-1.051469408632943e-17
	-2.955388684542294e-14
	1.356558232388555e-07
	5.195430173043051e-06
	6.528963082519753e-07
	1.818607844878292e-01

 21	2.100000000000000e-01
	-9.694331128501640e-15
	-1.080244954810293e-17
	-2.983360228553390e-14
	1.451230001127967e-07
	5.642023687771483e-06
	7.070512705375673e-07
	1.818607909997630e-01

 22	2.200000000000001e-01
	-9.604477601521145e-15
	-1.109842036624967e-17
	-3.011092701249991e-14
	1.551952466067919e-07
	6.129039550486746e-06
	7.658712348513760e-07
	1.818607980727735e-01

 23	2.300000000000001e-01
	-9.516661614302466e-15
	-1.140285788321219e-17
	-3.038579323868605e-14
	1.659065512092100e-07
	6.660273019391151e-06
	8.297791180213937e-07
	1.818608057577439e-01

 24	2.400000000000001e-01
	-9.430884071420332e-15
	-1.171602193418795e-17
	-3.065813572387526e-14
	1.772924639600696e-07
	7.239868049090243e-06
	8.992375095099601e-07
	1.818608141103319e-01

 25	2.500000000000001e-01
	-9.347144678756120e-15
	-1.203818116858597e-17
	-3.092789181303178e-14
	1.893901466360552e-07
	7.872345359217973e-06
	9.747522973281139e-07
	1.818608231914066e-01

 26	2.600000000000001e-01
	-9.265441954791058e-15
	-1.236961338502874e-17
	-3.119500146889611e-14
	2.022384235618483e-07
	8.562632012673560e-06
	1.056876582181518e-06
	1.818608330675208e-01

 27	2.700000000000001e-01
	-9.185773244023544e-15
	-1.271060588053079e-17
	-3.145940729943833e-14
	2.158778330390666e-07
	9.316092468883242e-06
	1.146214894783869e-06
	1.818608438114187e-01

 28	2.800000000000001e-01
	-9.108134732424786e-15
	-1.306145581450874e-17
	-3.172105458021263e-14
	2.303506793878228e-07
	1.013856105592295e-05
	1.243427730821453e-06
	1.818608555025805e-01

 29	2.900000000000001e-01
	-9.032521464842613e-15
	-1.342247058831233e-17
	-3.197989127167064e-14
	2.457010856002419e-07
	1.103637578099110e-05
	1.349236417370587e-06
	1.818608682278139e-01

 30	3.000000000000001e-01
	-8.958927364259317e-15
	-1.379396824100617e-17
	-3.223586803150631e-14
	2.619750466105449e-07
	1.201641337151094e-05
	1.464428323630313e-06
	1.818608820818717e-01

 31	3.100000000000001e-01
	-8.887345252806550e-15
	-1.417627786215827e-17
	-3.248893822211726e-14
	2.792204831923483e-07
	1.308612540899918e-05
	1.589862427605742e-06
	1.818608971681346e-01

 32	3.200000000000001e-01
	-8.817766874436737e-15
	-1.456974002243948e-17
	-3.273905791328282e-14
	2.974872965011219e-07
	1.425357538475599e-05
	1.726475248835164e-06
	1.818609135993183e-01

 33	3.300000000000001e-01
	-8.750182919148389e-15
	-1.497470722287383e-17
	-3.298618588016958e-14
	3.168274232882051e-07
	1.552747647042712e-05
	1.875287155365206e-06
	1.818609314982317e-01

 34	3.400000000000001e-01
	-8.684583048661461e-15
	-1.539154436362111e-17
	-3.323028359678638e-14
	3.372948918227546e-07
	1.691722975766510e-05
	2.037409050915537e-06
	1.818609509985942e-01

 35	3.500000000000001e-01
	-8.620955923435669e-15
	-1.582062923322498e-17
	-3.347131522502400e-14
	3.589458785698347e-07
	1.843296267963148e-05
	2.214049445510400e-06
	1.818609722458697e-01

 36	3.600000000000002e-01
	-8.559289230926117e-15
	-1.626235301929680e-17
	-3.370924759942047e-14
	3.818387656864337e-07
	2.008556728316249e-05
	2.406521909760987e-06
	1.818609953981805e-01

 37	3.700000000000002e-01
	-8.499569714967740e-15
	-1.671712084166554e-17
	-3.394405020780565e-14
	4.060341994135164e-07
	2.188673797441966e-05
	2.616252909441630e-06
	1.818610206272469e-01

 38	3.800000000000002e-01
	-8.441783206181609e-15
	-1.718535230907170e-17
	-3.417569516798447e-14
	4.315951494609380e-07
	2.384900831315885e-05
	2.844790012990569e-06
	1.818610481193720e-01

 39	3.900000000000002e-01
	-8.385914653295455e-15
	-1.766748210053966e-17
	-3.440415720062598e-14
	4.585869695040917e-07
	2.598578638192996e-05
	3.093810460071673e-06
	1.818610780764768e-01

 40	4.000000000000002e-01
	-8.331948155272291e-15
	-1.816396057262020e-17
	-3.462941359853106e-14
	4.870774589368874e-07
	2.831138820719589e-05
	3.365130074347484e-06
	1.818611107171774e-01

 41	4.100000000000002e-01
	-8.279866994141195e-15
	-1.867525439376123e-17
	-3.485144419245839e-14
	5.171369260554761e-07
	3.084106866030239e-05
	3.660712498135156e-06
	1.818611462778933e-01

 42	4.200000000000002e-01
	-8.229653668426735e-15
	-1.920184720712526e-17
	-3.507023131369070e-14
	5.488382528817927e-07
	3.359104921831344e-05
	3.982678720651616e-06
	1.818611850139978e-01

 43	4.300000000000002e-01
	-8.181289927074559e-15
	-1.974424032324198e-17
	-3.528575975352824e-14
	5.822569618762469e-07
	3.657854191897600e-05
	4.333316865120826e-06
	1.818612272009939e-01

 44	4.400000000000002e-01
	-8.134756803773274e-15
	-2.030295344396165e-17
	-3.549801671989872e-14
	6.174712848351970e-07
	3.982176880160215e-05
	4.715092193138995e-06
	1.818612731357248e-01

 45	4.500000000000002e-01
	-8.090034651574881e-15
	-2.087852541924167e-17
	-3.570699179127467e-14
	6.545622343224060e-07
	4.333997608771910e-05
	5.130657277414439e-06
	1.818613231375985e-01

 46	4.600000000000002e-01
	-8.047103177718856e-15
	-2.147151503839066e-17
	-3.591267686809043e-14
	6.936136780451823e-07
	4.715344232327978e-05
	5.582862286368044e-06
	1.818613775498227e-01

 47	4.700000000000003e-01
	-8.005941478567921e-15
	-2.208250185747338e-17
	-3.611506612185096e-14
	7.347124166563202e-07
	5.128347967949135e-05
	6.074765316163789e-06
	1.818614367406519e-01

 48	4.800000000000003e-01
	-7.966528074566430e-15
	-2.271208706466676e-17
	-3.631415594212515e-14
	7.779482655436077e-07
	5.575242759343246e-05
	6.609642697619573e-06
	1.818615011046236e-01

 49	4.900000000000003e-01
	-7.928840945136148e-15
	-2.336089438546120e-17
	-3.650994488161288e-14
	8.234141412604325e-07
	6.058363792413206e-05
	7.190999197219224e-06
	1.818615710637938e-01

 50	5.000000000000002e-01
	-7.892857563427148e-15
	-2.402957102969214e-17
	-3.670243359947672e-14
	8.712061533554572e-07
	6.580145080627934e-05
	7.822578023224156e-06
	1.818616470689409e-01

 51	5.100000000000002e-01
	-7.858554930845524e-15
	-2.471878868249866e-17
	-3.689162480312313e-14
	9.214237024775080e-07
	7.143116040374268e-05
	8.508370539789699e-06
	1.818617296007269e-01

 52	5.200000000000002e-01
	-7.825909611283299e-15
	-2.542924454141352e-17
	-3.707752318861775e-14
	9.741695857653839e-07
	7.749896980010790e-05
	9.252625584173516e-06
	1.818618191708160e-01

 53	5.300000000000002e-01
	-7.794897764980186e-15
	-2.616166240190669e-17
	-3.726013537991314e-14
	1.029550110682734e-06
	8.403193431487442e-05
	1.005985827473843e-05
	1.818619163229476e-01

 54	5.400000000000003e-01
	-7.765495181949636e-15
	-2.691679379382914e-17
	-3.743946986706686e-14
	1.087675218627209e-06
	9.105789260297414e-05
	1.093485819067000e-05
	1.818620216339039e-01

 55	5.500000000000003e-01
	-7.737677314907318e-15
	-2.769541917133802e-17
	-3.761553694361874e-14
	1.148658619832017e-06
	9.860538498286340e-05
	1.188269679832702e-05
	1.818621357144096e-01

 56	5.600000000000003e-01
	-7.711419311642495e-15
	-2.849834915901122e-17
	-3.778834864329529e-14
	1.212617941289491e-06
	1.067035585453335e-04
	1.290873399412000e-05
	1.818622592099112e-01

 57	5.700000000000003e-01
	-7.686696046778036e-15
	-2.932642585701900e-17
	-3.795791867620122e-14
	1.279674889661343e-06
	1.153820587216897e-04
	1.401862362995375e-05
	1.818623928012337e-01

 58	5.800000000000003e-01
	-7.663482152868338e-15
	-3.018052420835802e-17
	-3.812426236465330e-14
	1.349955431401474e-06
	1.246709071360285e-04
	1.521831788477606e-05
	1.818625372051190e-01

 59	5.900000000000003e-01
	-7.641752050788152e-15
	-3.106155343133429e-17
	-3.828739657880624e-14
	1.423589992606938e-06
	1.346003657315415e-04
	1.651407034484613e-05
	1.818626931745715e-01

 60	6.000000000000003e-01
	-7.621479979369806e-15
	-3.197045852062771e-17
	-3.844733967221321e-14
	1.500713681432278e-06
	1.452007873439498e-04
	1.791243765614092e-05
	1.818628614990637e-01

 61	6.100000000000003e-01
	-7.602640024249905e-15
	-3.290822182047608e-17
	-3.860411141745789e-14
	1.581466536255832e-06
	1.565024530949082e-04
	1.942027961505368e-05
	1.818630430045397e-01

 62	6.200000000000003e-01
	-7.585206145890296e-15
	-3.387586467368791e-17
	-3.875773294198791e-14
	1.665993803175247e-06
	1.685353971922241e-04
	2.104475756833867e-05
	1.818632385532121e-01

 63	6.300000000000003e-01
	-7.569152206742243e-15
	-3.487444915040260e-17
	-3.890822666427317e-14
	1.754446246837122e-06
	1.813292199493442e-04
	2.279333100026254e-05
	1.818634490431513e-01

 64	6.400000000000003e-01
	-7.554451997525529e-15
	-3.590507986072446e-17
	-3.905561623040618e-14
	1.846980499075596e-06
	1.949128900703976e-04
	2.467375219423353e-05
	1.818636754076349e-01

 65	6.500000000000004e-01
	-7.541079262598902e-15
	-3.696890585558354e-17
	-3.919992645125318e-14
	1.943759450350137e-06
	2.093145374851856e-04
	2.669405886784953e-05
	1.818639186142527e-01

 66	6.600000000000004e-01
	-7.529007724400420e-15
	-3.806712262040840e-17
	-3.934118324026007e-14
	2.044952689539047e-06
	2.245612382564947e-04
	2.886256469437033e-05
	1.818641796637714e-01

 67	6.700000000000004e-01
	-7.518211106940398e-15
	-3.920097416644617e-17
	-3.947941355200905e-14
	2.150736998266162e-06
	2.406787933149633e-04
	3.118784764003817e-05
	1.818644595887090e-01

 68	6.800000000000004e-01
	-7.508663158332404e-15
	-4.037175522482145e-17
	-3.961464532161487e-14
	2.261296906620383e-06
	2.576915029991597e-04
	3.367873606536979e-05
	1.818647594516810e-01

 69	6.900000000000004e-01
	-7.500337672350594e-15
	-4.158081354871765e-17
	-3.974690740504422e-14
	2.376825317877901e-06
	2.756219395850204e-04
	3.634429255940300e-05
	1.818650803434365e-01

 70	7.000000000000004e-01
	-7.493208509004823e-15
	-4.282955232933152e-17
	-3.987622952043390e-14
	2.497524210662622e-06
	2.944907201734739e-04
	3.919379549868694e-05
	1.818654233806496e-01

 71	7.100000000000004e-01
	-7.487249614127222e-15
	-4.411943273158532e-17
	-4.000264219047744e-14
	2.623605427891570e-06
	3.143162824623614e-04
	4.223671834733627e-05
	1.818657897034134e-01

 72	7.200000000000004e-01
	-7.482435037967125e-15
	-4.545197655587912e-17
	-4.012617668594343e-14
	2.755291562859819e-06
	3.351146660530439e-04
	4.548270674040379e-05
	1.818661804725042e-01

 73	7.300000000000004e-01
	-7.478738952792497e-15
	-4.682876903253291e-17
	-4.024686497038296e-14
	2.892816953937729e-06
	3.568993020282454e-04
	4.894155341982654e-05
	1.818665968663573e-01

 74	7.400000000000004e-01
	-7.476135669499174e-15
	-4.825146175590943e-17
	-4.036473964607703e-14
	3.036428800596824e-06
	3.796808135809662e-04
	5.262317111983093e-05
	1.818670400778060e-01

 75	7.500000000000004e-01
	-7.474599653231019e-15
	-4.972177576559349e-17
	-4.047983390126913e-14
	3.186388414869680e-06
	4.034668304709313e-04
	5.653756352652541e-05
	1.818675113106018e-01

 76	7.600000000000005e-01
	-7.474105538015416e-15
	-5.124150478241107e-17
	-4.059218145872292e-14
	3.342972623905747e-06
	4.282618200319473e-04
	6.069479446396794e-05
	1.818680117757083e-01

 77	7.700000000000005e-01
	-7.474628140421070e-15
	-5.281251860748103e-17
	-4.070181652563894e-14
	3.506475341035027e-06
	4.540669373486531e-04
	6.510495548574838e-05
	1.818685426874085e-01

 78	7.800000000000005e-01
	-7.476142472245962e-15
	-5.443676669294082e-17
	-4.080877374495980e-14
	3.677209324727401e-06
	4.808798970638400e-04
	6.977813207657289e-05
	1.818691052592495e-01

 79	7.900000000000005e-01
	-7.478623752244947e-15
	-5.611628189346769e-17
	-4.091308814808785e-14
	3.855508147073798e-06
	5.086948690681595e-04
	7.472436869194478e-05
	1.818697006998387e-01

 80	8.000000000000005e-01
	-7.482047416908098e-15
	-5.785318440817304e-17
	-4.101479510903409e-14
	4.041728395959092e-06
	5.375024000643974e-04
	7.995363288527237e-05
	1.818703302085370e-01

 81	8.100000000000005e-01
	-7.486389130301206e-15
	-5.964968592300711e-17
	-4.111393030001427e-14
	4.236252137998634e-06
	5.672893626919840e-04
	8.547577879015853e-05
	1.818709949710735e-01

 82	8.200000000000005e-01
	-7.491624792981516e-15
	-6.150809396431902e-17
	-4.121052964850186e-14
	4.439489672628661e-06
	5.980389335482089e-04
	9.130051024073226e-05
	1.818716961551118e-01

 83	8.300000000000005e-01
	-7.497730550002158e-15
	-6.343081647480978e-17
	-4.130462929574498e-14
	4.651882611547240e-06
	6.297306010567475e-04
	9.743734382431660e-05
	1.818724349058085e-01

 84	8.400000000000005e-01
	-7.504682798019980e-15
	-6.542036662369881e-17
	-4.139626555674944e-14
	4.873907322079044e-06
	6.623402037183504e-04
	1.038955721681420e-04
	1.818732123413986e-01

 85	8.500000000000005e-01
	-7.512458191521023e-15
	-6.747936786355402e-17
	-4.148547488172792e-14
	5.106078778079747e-06
	6.958399988406635e-04
	1.106842277649325e-04
	1.818740295488460e-01

 86	8.600000000000005e-01
	-7.521033648179584e-15
	-6.961055924690523e-17
	-4.157229381901002e-14
	5.348954867818069e-06
	7.301987613929063e-04
	1.178120476408748e-04
	1.818748875795869e-01

 87	8.700000000000006e-01
	-7.530386353366059e-15
	-7.181680101643035e-17
	-4.165675897940651e-14
	5.603141215006099e-06
	7.653819121753970e-04
	1.252874391635960e-04
	1.818757874454167e-01

 88	8.800000000000006e-01
	-7.540493763819379e-15
	-7.410108048322508e-17
	-4.173890700201748e-14
	5.869296576946393e-06
	8.013516740431436e-04
	1.331184472773607e-04
	1.818767301145400e-01

 89	8.900000000000006e-01
	-7.551333610500227e-15
	-7.646651820843459e-17
	-4.181877452147040e-14
	6.148138892807248e-06
	8.380672544860659e-04
	1.413127234378315e-04
	1.818777165078313e-01

 90	9.000000000000006e-01
	-7.562883900640463e-15
	-7.891637450427750e-17
	-4.189639813657384e-14
	6.440452065536732e-06
	8.754850524548909e-04
	1.498774964996180e-04
	1.818787474953205e-01

 91	9.100000000000006e-01
	-7.575122919004601e-15
	-8.145405627135171e-17
	-4.197181438036777e-14
	6.747093573127857e-06
	9.135588869394572e-04
	1.588195457867270e-04
	1.818798238929416e-01

 92	9.200000000000006e-01
	-7.588029228379054e-15
	-8.408312418989417e-17
	-4.204505969155067e-14
	7.069003019141265e-06
	9.522402444626579e-04
	1.681451765492856e-04
	1.818809464595769e-01

 93	9.300000000000006e-01
	-7.601581669303879e-15
	-8.680730028362347e-17
	-4.211617038726132e-14
	7.407211748916214e-06
	9.914785423547094e-04
	1.778601979799701e-04
	1.818821158944076e-01

 94	9.400000000000006e-01
	-7.615759359061757e-15
	-8.963047587565058e-17
	-4.218518263719130e-14
	7.762853677152268e-06
	1.031221404423703e-03
	1.879699039308819e-04
	1.818833328345646e-01

 95	9.500000000000006e-01
	-7.630541689938952e-15
	-9.255671995690469e-17
	-4.225213243900257e-14
	8.137177494985723e-06
	1.071414945442917e-03
	1.984790564367003e-04
	1.818845978531604e-01

 96	9.600000000000006e-01
	-7.645908326771187e-15
	-9.559028798849094e-17
	-4.231705559502228e-14
	8.531560450863253e-06
	1.112004060735238e-03
	2.093918721133964e-04
	1.818859114576326e-01

 97	9.700000000000006e-01
	-7.661839203787844e-15
	-9.873563116042330e-17
	-4.237998769018745e-14
	8.947523930061156e-06
	1.152932717049911e-03
	2.207120114640812e-04
	1.818872740884543e-01

 98	9.800000000000006e-01
	-7.678314520766646e-15
	-1.019974061301579e-16
	-4.244096407120855e-14
	9.386751093357133e-06
	1.194144240895742e-03
	2.324425710853100e-04
	1.818886861181918e-01

 99	9.900000000000007e-01
	-7.695314738510172e-15
	-1.053804852654532e-16
	-4.250001982692173e-14
	9.851106876993698e-06
	1.235581600514423e-03
	2.445860787288594e-04
	1.818901478509068e-01

 100	1.000000000000001e+00
	-7.712820573655147e-15
	-1.088899674171198e-16
	-4.255718976979745e-14
	1.034266070468069e-05
	1.277187677743351e-03
	2.571444911361343e-04
	1.818916595219001e-01

 101	1.010000000000001e+00
	-7.730812992823796e-15
	-1.125311892483442e-16
	-4.261250841857279e-14
	1.086371231912608e-05
	1.318905526123141e-03
	2.701191945253737e-04
	1.818932212977592e-01

 102	1.020000000000001e+00
	-7.749273206126385e-15
	-1.163097371483469e-16
	-4.266600998197408e-14
	1.141682120678498e-05
	1.360678611743750e-03
	2.835110075760556e-04
	1.818948332767236e-01

 103	1.030000000000001e+00
	-7.768182660022767e-15
	-1.202314597592442e-16
	-4.271772834349558e-14
	1.200484016669283e-05
	1.402451033486712e-03
	2.973201867206911e-04
	1.818964954893290e-01

 104	1.040000000000001e+00
	-7.787523029549526e-15
	-1.243024811461233e-16
	-4.276769704719897e-14
	1.263095366409903e-05
	1.444167719500325e-03
	3.115464335217127e-04
	1.818982078992876e-01

 105	1.050000000000001e+00
	-7.807276209918599e-15
	-1.285292146413738e-16
	-4.281594928449952e-14
	1.329872171402842e-05
	1.485774596930234e-03
	3.261889038804807e-04
	1.818999704046046e-01

 106	1.060000000000001e+00
	-7.827424307492250e-15
	-1.329183773954508e-16
	-4.286251788190227e-14
	1.401213016092198e-05
	1.527218732110229e-03
	3.412462187966536e-04
	1.819017828388783e-01

 107	1.070000000000001e+00
	-7.847949630137695e-15
	-1.374770056672621e-16
	-4.290743528965310e-14
	1.477564836029294e-05
	1.568448438587554e-03
	3.567164763691465e-04
	1.819036449727434e-01

 108	1.080000000000001e+00
	-7.868834676964404e-15
	-1.422124708883524e-16
	-4.295073357126836e-14
	1.559429542903872e-05
	1.609413350504342e-03
	3.725972647044521e-04
	1.819055565154308e-01

 109	1.090000000000001e+00
	-7.890062127445187e-15
	-1.471324965360417e-16
	-4.299244439390713e-14
	1.647371641465298e-05
	1.650064458974193e-03
	3.888856753740244e-04
	1.819075171163894e-01

 110	1.100000000000001e+00
	-7.911614829921968e-15
	-1.522451758514558e-16
	-4.303259901954954e-14
	1.742026994161080e-05
	1.690354109173407e-03
	4.055783170393160e-04
	1.819095263669308e-01

 111	1.110000000000001e+00
	-7.933475789495487e-15
	-1.575589904392377e-16
	-4.307122829694534e-14
	1.844112912628351e-05
	1.730235955905870e-03
	4.226713288405897e-04
	1.819115838018409e-01

 112	1.120000000000001e+00
	-7.955628155297559e-15
	-1.630828297862559e-16
	-4.310836265429631e-14
	1.954439780892681e-05
	1.769664875397982e-03
	4.401603931232988e-04
	1.819136889009106e-01

 113	1.130000000000001e+00
	-7.978055207143853e-15
	-1.688260117371651e-16
	-4.314403209263642e-14
	2.073924442907547e-05
	1.808596831039024e-03
	4.580407470533060e-04
	1.819158410903476e-01

 114	1.140000000000001e+00
	-8.000740341563648e-15
	-1.747983039649540e-16
	-4.317826617987429e-14
	2.203605616151916e-05
	1.846988690714111e-03
	4.763071926491760e-04
	1.819180397439779e-01

 115	1.150000000000001e+00
	-8.023667057202711e-15
	-1.810099464746945e-16
	-4.321109404546206e-14
	2.344661622025102e-05
	1.884797993300591e-03
	4.949541047359067e-04
	1.819202841842020e-01

 116	1.160000000000001e+00
	-8.046818939595532e-15
	-1.874716751784524e-16
	-4.324254437565468e-14
	2.498430750457741e-05
	1.921982661849108e-03
	5.139754362999934e-04
	1.819225736826477e-01

 117	1.170000000000001e+00
	-8.070179645301098e-15
	-1.941947465789361e-16
	-4.327264540932584e-14
	2.666434596890391e-05
	1.958500660999726e-03
	5.333647207011087e-04
	1.819249074604344e-01

 118	1.180000000000001e+00
	-8.093732885397983e-15
	-2.011909635985051e-16
	-4.330142493430395e-14
	2.850404719056867e-05
	1.994309596369473e-03
	5.531150701720285e-04
	1.819272846879977e-01

 119	1.190000000000001e+00
	-8.117462408332293e-15
	-2.084727025889684e-16
	-4.332891028419547e-14
	3.052312950702732e-05
	2.029366254104617e-03
	5.732191700178941e-04
	1.819297044843857e-01

 120	1.200000000000001e+00
	-8.141351982114889e-15
	-2.160529415557816e-16
	-4.335512833565953e-14
	3.274405667701346e-05
	2.063626079678337e-03
	5.936692679119212e-04
	1.819321659159860e-01

 121	1.210000000000001e+00
	-8.165385375861597e-15
	-2.239452896281240e-16
	-4.338010550610158e-14
	3.519242212406716e-05
	2.097042596554466e-03
	6.144571576826813e-04
	1.819346679945555e-01

 122	1.220000000000001e+00
	-8.189546340673811e-15
	-2.321640178031893e-16
	-4.340386775175086e-14
	3.789737521680593e-05
	2.129566767825615e-03
	6.355741570056918e-04
	1.819372096745542e-01

 123	1.230000000000001e+00
	-8.213818589855777e-15
	-2.407240909897072e-16
	-4.342644056608975e-14
	4.089208742369556e-05
	2.161146307760526e-03
	6.570110784612065e-04
	1.819397898496641e-01

 124	1.240000000000001e+00
	-8.238185778467407e-15
	-2.496412013711676e-16
	-4.344784897860067e-14
	4.421425215749664e-05
	2.191724955846235e-03
	6.787581935157980e-04
	1.819424073484418e-01

 125	1.250000000000001e+00
	-8.262631482213809e-15
	-2.589318031039993e-16
	-4.346811755379788e-14
	4.790660621180790e-05
	2.221241733970924e-03
	7.008051891491514e-04
	1.819450609291127e-01

 126	1.260000000000001e+00
	-8.287139175674312e-15
	-2.686131483598504e-16
	-4.348727039051107e-14
	5.201745233170983e-05
	2.249630218509423e-03
	7.231411171065388e-04
	1.819477492734585e-01

 127	1.270000000000001e+00
	-8.311692209878435e-15
	-2.787033247138550e-16
	-4.350533112138673e-14
	5.660115107769726e-05
	2.276817873866637e-03
	7.457543361453359e-04
	1.819504709798794e-01

 128	1.280000000000001e+00
	-8.336273789238480e-15
	-2.892212938725232e-16
	-4.352232291257467e-14
	6.171853526566764e-05
	2.302725512938675e-03
	7.686324481999990e-04
	1.819532245556966e-01

 129	1.290000000000001e+00
	-8.360866947856045e-15
	-3.001869317253209e-16
	-4.353826846356360e-14
	6.743718174723269e-05
	2.327266972914921e-03
	7.917622301551912e-04
	1.819560084089568e-01

 130	1.300000000000001e+00
	-8.385454525222967e-15
	-3.116210696934720e-16
	-4.355319000713113e-14
	7.383145366282496e-05
	2.350349120884542e-03
	8.151295639282952e-04
	1.819588208400131e-01

 131	1.310000000000001e+00
	-8.410019141346357e-15
	-3.235455373374728e-16
	-4.356710930937112e-14
	8.098220327080315e-05
	2.371872330278382e-03
	8.387193688394384e-04
	1.819616600334028e-01

 132	1.320000000000001e+00
	-8.434543171334093e-15
	-3.359832061717554e-16
	-4.358004766975919e-14
	8.897600457096218e-05
	2.391731591415078e-03
	8.625155417730949e-04
	1.819645240506264e-01

 133	1.330000000000001e+00
	-8.459008719487863e-15
	-3.489580346201681e-16
	-4.359202592121610e-14
	9.790377220323128e-05
	2.409818429470399e-03
	8.865009123298369e-04
	1.819674108247726e-01

 134	1.340000000000001e+00
	-8.483397592959801e-15
	-3.624951140301474e-16
	-4.360306443012627e-14
	1.078586273023528e-04
	2.426023789985353e-03
	9.106572218562199e-04
	1.819703181579861e-01

 135	1.350000000000001e+00
	-8.507691275040557e-15
	-3.766207156456179e-16
	-4.361318309626801e-14
	1.189329031937347e-04
	2.440242002191614e-03
	9.349651366261361e-04
	1.819732437230681e-01

 136	1.360000000000001e+00
	-8.531870898158038e-15
	-3.913623384189673e-16
	-4.362240135261014e-14
	1.312142553257508e-04
	2.452375831126931e-03
	9.594043060967333e-04
	1.819761850704891e-01

 137	1.370000000000001e+00
	-8.555917216676229e-15
	-4.067487575197971e-16
	-4.363073816493371e-14
	1.447809580184437e-04
	2.462342473826572e-03
	9.839534765393285e-04
	1.819791396420572e-01

 138	1.380000000000001e+00
	-8.579810579596651e-15
	-4.228100733719778e-16
	-4.363821203123741e-14
	1.596966327166481e-04
	2.470080149422069e-03
	1.008590667906037e-03
	1.819821047922258e-01

 139	1.390000000000001e+00
	-8.603530903271117e-15
	-4.395777610196306e-16
	-4.364484098089682e-14
	1.760048389682192e-04
	2.475554705483573e-03
	1.033293417158234e-03
	1.819850778173693e-01

 140	1.400000000000001e+00
	-8.627057644246845e-15
	-4.570847195858315e-16
	-4.365064257355272e-14
	1.937241305327561e-04
	2.478765465338059e-03
	1.058039084473129e-03
	1.819880559926406e-01

 141	1.410000000000001e+00
	-8.650369772372099e-15
	-4.753653215444274e-16
	-4.365563389771824e-14
	2.128442791521147e-04
	2.479749442473956e-03
	1.082805210396599e-03
	1.819910366149529e-01

 142	1.420000000000001e+00
	-8.673445744301940e-15
	-4.944554614752748e-16
	-4.365983156910566e-14
	2.333243413775450e-04
	2.478583114265595e-03
	1.107569903455552e-03
	1.819940170496379e-01

 143	1.430000000000001e+00
	-8.696263477557549e-15
	-5.143926039175324e-16
	-4.366325172868270e-14
	2.550930570981137e-04
	2.475381210437814e-03
	1.132312230829400e-03
	1.819969947774463e-01

 144	1.440000000000001e+00
	-8.718800325313516e-15
	-5.352158298753531e-16
	-4.366591004047461e-14
	2.780517368048094e-04
	2.470292404108939e-03
	1.157012581293343e-03
	1.819999674382365e-01

 145	1.450000000000001e+00
	-8.741033052113388e-15
	-5.569658814690278e-16
	-4.366782168912620e-14
	3.020793876202067e-04
	2.463492301234643e-03
	1.181652971057450e-03
	1.820029328677710e-01

 146	1.460000000000001e+00
	-8.762937810748760e-15
	-5.796852041627072e-16
	-4.366900137723223e-14
	3.270394519614899e-04
	2.455174574173298e-03
	1.206217269435374e-03
	1.820058891248746e-01

 147	1.470000000000001e+00
	-8.784490120575939e-15
	-6.034179859401689e-16
	-4.366946332243323e-14
	3.527872911416434e-04
	2.445541353254410e-03
	1.230691331255670e-03
	1.820088345073597e-01

 148	1.480000000000001e+00
	-8.805664847587189e-15
	-6.282101927412050e-16
	-4.366922125426173e-14
	3.791774989473079e-04
	2.434794012551966e-03
	1.255063034376395e-03
	1.820117675565375e-01

 149	1.490000000000001e+00
	-8.826436186595880e-15
	-6.541095994130711e-16
	-4.366828841071496e-14
	4.060702713868823e-04
	2.423125280380578e-03
	1.279322231146224e-03
	1.820146870513682e-01

 150	1.500000000000001e+00
	-8.846777645935712e-15
	-6.811658153722206e-16
	-4.366667753452339e-14
	4.333363259225872e-04
	2.410713255811782e-03
	1.303460630277141e-03
	1.820175919942376e-01

 151	1.510000000000001e+00
	-8.866662035111359e-15
	-7.094303041099820e-16
	-4.366440086908737e-14
	4.608601690979008e-04
	2.397717529814343e-03
	1.327471629469402e-03
	1.820204815908141e-01

 152	1.520000000000001e+00
	-8.886061455871240e-15
	-7.389563956120452e-16
	-4.366147015405753e-14
	4.885417780665095e-04
	2.384277286464888e-03
	1.351350119418213e-03
	1.820233552264531e-01

 153	1.530000000000001e+00
	-8.904947297203994e-15
	-7.697992906955403e-16
	-4.365789662054676e-14