Title: ** sch_path: /home/andylithia/openmpw/project-yatsuhashi-chip1/xschem/gmid_test/nmos_test.sch
Date: Tue Jul 19 23:15:45  2022
Plotname: DC transfer characteristic
Flags: real
No. Variables: 8
No. Points: 181
Variables:
	0	v(v-sweep)	voltage
	1	@m.xm1.msky130_fd_pr__nfet_01v8[cgb]	capacitance
	2	@m.xm1.msky130_fd_pr__nfet_01v8[cgd]	capacitance
	3	@m.xm1.msky130_fd_pr__nfet_01v8[cgs]	capacitance
	4	@m.xm1.msky130_fd_pr__nfet_01v8[gds]	admittance
	5	@m.xm1.msky130_fd_pr__nfet_01v8[gm]	admittance
	6	i(@m.xm1.msky130_fd_pr__nfet_01v8[id])	current
	7	v(@m.xm1.msky130_fd_pr__nfet_01v8[vth])	voltage
Values:
 0	0.000000000000000e+00
	-6.684647731050751e-15
	-1.032901671709907e-19
	-8.828966123357154e-15
	5.321647315887683e-08
	2.209129609655171e-06
	2.449076132126213e-07
	2.951563327495868e-01

 1	1.000000000000000e-02
	-6.612419378907555e-15
	-1.088450345526910e-19
	-8.991225027115895e-15
	5.815196840047620e-08
	2.413854497431243e-06
	2.680076461484270e-07
	2.951563345057031e-01

 2	2.000000000000000e-02
	-6.540804103196736e-15
	-1.146063374573771e-19
	-9.154100352839043e-15
	6.352867137119442e-08
	2.637215622913179e-06
	2.932467625377832e-07
	2.951563364250792e-01

 3	3.000000000000000e-02
	-6.469823613298707e-15
	-1.205784474834008e-19
	-9.317522016396636e-15
	6.938383535270099e-08
	2.880897605161006e-06
	3.208196231045280e-07
	2.951563385226922e-01

 4	4.000000000000000e-02
	-6.399499503458616e-15
	-1.267657302977845e-19
	-9.481419116328376e-15
	7.575758053634938e-08
	3.146741171669902e-06
	3.509385028006010e-07
	2.951563408148963e-01

 5	5.000000000000000e-02
	-6.329853202303822e-15
	-1.331725437540103e-19
	-9.645720046590992e-15
	8.269308082005471e-08
	3.436758811325064e-06
	3.838349287459545e-07
	2.951563433195592e-01

 6	6.000000000000000e-02
	-6.260905922995003e-15
	-1.398032361657776e-19
	-9.810352611441308e-15
	9.023675886451447e-08
	3.753152184030954e-06
	4.197614833115372e-07
	2.951563460561997e-01

 7	7.000000000000001e-02
	-6.192678614167990e-15
	-1.466621447463074e-19
	-9.975244142088557e-15
	9.843848933070082e-08
	4.098331495421678e-06
	4.589937909352569e-07
	2.951563490461518e-01

 8	8.000000000000000e-02
	-6.125191911821153e-15
	-1.537535942222159e-19
	-1.014032161474096e-14
	1.073518101602359e-07
	4.474937067107558e-06
	5.018327094539313e-07
	2.951563523127466e-01

 9	9.000000000000000e-02
	-6.058466092300347e-15
	-1.610818956302679e-19
	-1.030551176966311e-14
	1.170341416943079e-07
	4.885863356251292e-06
	5.486067491542086e-07
	2.951563558815106e-01

 10	9.999999999999999e-02
	-5.992521026529205e-15
	-1.686513453047127e-19
	-1.047074123085536e-14
	1.275470133551969e-07
	5.334285702713285e-06
	5.996747454045005e-07
	2.951563597803782e-01

 11	1.100000000000000e-01
	-5.927376135628117e-15
	-1.764662240619820e-19
	-1.063593662596227e-14
	1.389562975372572e-07
	5.823690107296104e-06
	6.554288136377717e-07
	2.951563640399443e-01

 12	1.200000000000000e-01
	-5.863050348059260e-15
	-1.845307965889288e-19
	-1.080102470601641e-14
	1.513324502715097e-07
	6.357906370406529e-06
	7.162976186188380e-07
	2.951563686937287e-01

 13	1.300000000000000e-01
	-5.799562058428978e-15
	-1.928493110398669e-19
	-1.096593246462364e-14
	1.647507581397968e-07
	6.941144946279147e-06
	7.827499933515409e-07
	2.951563737784874e-01

 14	1.400000000000000e-01
	-5.736929088071524e-15
	-2.014259988469715e-19
	-1.113058725619969e-14
	1.792915908211405e-07
	7.578037893205210e-06
	8.552989466595175e-07
	2.951563793345391e-01

 15	1.500000000000000e-01
	-5.675168647530242e-15
	-2.102650747475471e-19
	-1.129491691287180e-14
	1.950406585544973e-07
	8.273684324270732e-06
	9.345061023992672e-07
	2.951563854061461e-01

 16	1.600000000000000e-01
	-5.614297301044083e-15
	-2.193707370308948e-19
	-1.145884985966710e-14
	2.120892736990926e-07
	9.033700785089470e-06
	1.020986617420724e-06
	2.951563920419291e-01

 17	1.700000000000000e-01
	-5.554330933138042e-15
	-2.287471680068425e-19
	-1.162231522761772e-14
	2.305346154660317e-07
	9.864277003899001e-06
	1.115414629751527e-06
	2.951563992953342e-01

 18	1.800000000000000e-01
	-5.495284717406571e-15
	-2.383985346967055e-19
	-1.178524296442464e-14
	2.504799967834936e-07
	1.077223747399614e-05
	1.218529293010866e-06
	2.951564072251477e-01

 19	1.900000000000000e-01
	-5.437173087569188e-15
	-2.483289897468809e-19
	-1.194756394233411e-14
	2.720351321428309e-07
	1.176510933744852e-05
	1.331141457706825e-06
	2.951564158960779e-01

 20	2.000000000000000e-01
	-5.380009710866887e-15
	-2.585426725645899e-19
	-1.210921006289633e-14
	2.953164051549705e-07
	1.285119704078158e-05
	1.454141064774418e-06
	2.951564253793961e-01

 21	2.100000000000000e-01
	-5.323807463857412e-15
	-2.690437106738288e-19
	-1.227011435829199e-14
	3.204471344259884e-07
	1.403966422614493e-05
	1.588505321388187e-06
	2.951564357536489e-01

 22	2.200000000000001e-01
	-5.268578410656494e-15
	-2.798362212894028e-19
	-1.243021108893035e-14
	3.475578362383456e-07
	1.534062330336695e-05
	1.735307733634932e-06
	2.951564471054620e-01

 23	2.300000000000001e-01
	-5.214333783661133e-15
	-2.909243131059071e-19
	-1.258943583704219e-14
	3.767864824006776e-07
	1.676523311718228e-05
	1.895728074939248e-06
	2.951564595304236e-01

 24	2.400000000000001e-01
	-5.161083966779760e-15
	-3.023120882977004e-19
	-1.274772559601195e-14
	4.082787515048024e-07
	1.832580507745334e-05
	2.071063373054724e-06
	2.951564731340661e-01

 25	2.500000000000001e-01
	-5.108838481183320e-15
	-3.140036447250858e-19
	-1.290501885521441e-14
	4.421882717045655e-07
	2.003591805595873e-05
	2.262740001801388e-06
	2.951564880329649e-01

 26	2.600000000000001e-01
	-5.057605973579844e-15
	-3.260030783419264e-19
	-1.306125568014529e-14
	4.786768530082348e-07
	2.191054226873507e-05
	2.472326966355722e-06
	2.951565043559395e-01

 27	2.700000000000001e-01
	-5.007394207004621e-15
	-3.383144857981895e-19
	-1.321637778765772e-14
	5.179147069549097e-07
	2.396617225539231e-05
	2.701550472564032e-06
	2.951565222454027e-01

 28	2.800000000000001e-01
	-4.958210054107276e-15
	-3.509419672313871e-19
	-1.337032861614152e-14
	5.600806514273441e-07
	2.622096893368212e-05
	2.952309871213698e-06
	2.951565418588406e-01

 29	2.900000000000001e-01
	-4.910059492906730e-15
	-3.638896292398754e-19
	-1.352305339050652e-14
	6.053622982391749e-07
	2.869491054630895e-05
	3.226695067187434e-06
	2.951565633704418e-01

 30	3.000000000000001e-01
	-4.862947604975166e-15
	-3.771615880304904e-19
	-1.367449918185619e-14
	6.539562210254061e-07
	3.140995212518461e-05
	3.527005480651823e-06
	2.951565869728985e-01

 31	3.100000000000001e-01
	-4.816878576002478e-15
	-3.907619727327695e-19
	-1.382461496176288e-14
	7.060681008621571e-07
	3.439019287394493e-05
	3.855770642575934e-06
	2.951566128793869e-01

 32	3.200000000000001e-01
	-4.771855698683797e-15
	-4.046949288716803e-19
	-1.397335165108089e-14
	7.619128469467975e-07
	3.766205061091593e-05
	4.215772499604871e-06
	2.951566413257422e-01

 33	3.300000000000001e-01
	-4.727881377863953e-15
	-4.189646219904125e-19
	-1.412066216325889e-14
	8.217146895840954e-07
	4.125444212074565e-05
	4.610069493277404e-06
	2.951566725728094e-01

 34	3.400000000000001e-01
	-4.684957137865162e-15
	-4.335752414145249e-19
	-1.426650144213564e-14
	8.857072426492426e-07
	4.519896793323135e-05
	5.042022465417164e-06
	2.951567069090539e-01

 35	3.500000000000001e-01
	-4.643083631916391e-15
	-4.485310041489332e-19
	-1.441082649422973e-14
	9.541335326378334e-07
	4.953009968312467e-05
	5.515322424897215e-06
	2.951567446533572e-01

 36	3.600000000000002e-01
	-4.602260653596779e-15
	-4.638361588985425e-19
	-1.455359641555365e-14
	1.027245991366165e-06
	5.428536780648984e-05
	6.034020190520690e-06
	2.951567861580864e-01

 37	3.700000000000002e-01
	-4.562487150198938e-15
	-4.794949902041257e-19
	-1.469477241300792e-14
	1.105306409357065e-06
	5.950554690068010e-05
	6.602557900170114e-06
	2.951568318123771e-01

 38	3.800000000000002e-01
	-4.523761237913072e-15
	-4.955118226842360e-19
	-1.483431782042943e-14
	1.188585846937327e-06
	6.523483562066204e-05
	7.225802347358865e-06
	2.951568820456985e-01

 39	3.900000000000002e-01
	-4.486080218727946e-15
	-5.118910253745522e-19
	-1.497219810939065e-14
	1.277364500087332e-06
	7.152102751068954e-05
	7.909080072655712e-06
	2.951569373316607e-01

 40	4.000000000000002e-01
	-4.449440598941035e-15
	-5.286370161563460e-19
	-1.510838089486369e-14
	1.371931518122846e-06
	7.841566868537464e-05
	8.658214098981063e-06
	2.951569981920845e-01

 41	4.100000000000002e-01
	-4.413838109166905e-15
	-5.457542662652095e-19
	-1.524283593588170e-14
	1.472584770357309e-06
	8.597419778842175e-05
	9.479562156437040e-06
	2.951570652013397e-01

 42	4.200000000000002e-01
	-4.379267725730325e-15
	-5.632473048726442e-19
	-1.537553513134673e-14
	1.579630558993484e-06
	9.425606318321319e-05
	1.038005619418573e-05
	2.951571389909224e-01

 43	4.300000000000002e-01
	-4.345723693328958e-15
	-5.811207237318101e-19
	-1.550645251114766e-14
	1.693383275628237e-06
	1.033248118817859e-04
	1.136724292411413e-05
	2.951572202542761e-01

 44	4.400000000000002e-01
	-4.313199548849291e-15
	-5.993791818810735e-19
	-1.563556422276568e-14
	1.814164998928497e-06
	1.132481443145758e-04
	1.244932508397776e-05
	2.951573097518365e-01

 45	4.500000000000002e-01
	-4.281688146219017e-15
	-6.180274103972105e-19
	-1.576284851355685e-14
	1.942305031251915e-06
	1.240979287016580e-04
	1.363520304692208e-05
	2.951574083162788e-01

 46	4.600000000000002e-01
	-4.251181682179168e-15
	-6.370702171924541e-19
	-1.588828570891260e-14
	2.078139372246659e-06
	1.359501685280389e-04
	1.493451634047482e-05
	2.951575168579150e-01

 47	4.700000000000003e-01
	-4.221671722860225e-15
	-6.565124918488244e-19
	-1.601185818650711e-14
	2.222010127773353e-06
	1.488849164732365e-04
	1.635768457222901e-05
	2.951576363702191e-01

 48	4.800000000000003e-01
	-4.193149231047779e-15
	-6.763592104841168e-19
	-1.613355034684889e-14
	2.374264852851520e-06
	1.629861281223337e-04
	1.791594719267537e-05
	2.951577679354281e-01

 49	4.900000000000003e-01
	-4.165604594024936e-15
	-6.966154406440981e-19
	-1.625334858036019e-14
	2.535255827745501e-06
	1.783414489155995e-04
	1.962140145941214e-05
	2.951579127301489e-01

 50	5.000000000000002e-01
	-4.139027651881470e-15
	-7.172863462169263e-19
	-1.637124123121233e-14
	2.705339266771492e-06
	1.950419280997621e-04
	2.148703790290243e-05
	2.951580720308934e-01

 51	5.100000000000002e-01
	-4.113407726182201e-15
	-7.383771923647293e-19
	-1.648721855814832e-14
	2.884874459929583e-06
	2.131816539478111e-04
	2.352677253394625e-05
	2.951582472194828e-01

 52	5.200000000000002e-01
	-4.088733648890458e-15
	-7.598933504692960e-19
	-1.660127269252672e-14
	3.074222848042528e-06
	2.328573052348330e-04
	2.575547497916626e-05
	2.951584397881940e-01

 53	5.300000000000002e-01
	-4.064993791446347e-15
	-7.818403030889108e-19
	-1.671339759382028e-14
	3.273747032714754e-06
	2.541676149100548e-04
	2.818899168532283e-05
	2.951586513445677e-01

 54	5.400000000000003e-01
	-4.042176093902986e-15
	-8.042236489230644e-19
	-1.682358900280374e-14
	3.483809723109169e-06
	2.772127431000641e-04
	3.084416329856181e-05
	2.951588836157470e-01

 55	5.500000000000003e-01
	-4.020268094028721e-15
	-8.270491077840148e-19
	-1.693184439266193e-14
	3.704772622270860e-06
	3.020935580185388e-04
	3.373883530319628e-05
	2.951591384522275e-01

 56	5.600000000000003e-01
	-3.999256956287425e-15
	-8.503225255729148e-19
	-1.703816291824752e-14
	3.936995256502179e-06
	3.289108250397041e-04
	3.689186099879940e-05
	2.951594178308714e-01

 57	5.700000000000003e-01
	-3.979129500613852e-15
	-8.740498792596536e-19
	-1.714254536371303e-14
	4.180833752103127e-06
	3.577643061024847e-04
	4.032309590655743e-05
	2.951597238570732e-01

 58	5.800000000000003e-01
	-3.959872230905744e-15
	-8.982372818664543e-19
	-1.724499408873765e-14
	4.436639564629859e-06
	3.887517737271549e-04
	4.405338272823796e-05
	2.951600587658865e-01

 59	5.900000000000003e-01
	-3.941471363159697e-15
	-9.228909874542781e-19
	-1.734551297356269e-14
	4.704758166676669e-06
	4.219679462115033e-04
	4.810452603557535e-05
	2.951604249220122e-01

 60	6.000000000000003e-01
	-3.923912853182364e-15
	-9.480173961128723e-19
	-1.744410736304395e-14
	4.985527701045700e-06
	4.575033529844542e-04
	5.249925594592309e-05
	2.951608248184766e-01

 61	6.100000000000003e-01
	-3.907182423814097e-15
	-9.736230589553319e-19
	-1.754078400992120e-14
	5.279277607017085e-06
	4.954431415752571e-04
	5.726118014261172e-05
	2.951612610738620e-01

 62	6.200000000000003e-01
	-3.891265591607125e-15
	-9.997146831176202e-19
	-1.763555101749798e-14
	5.586327228254292e-06
	5.358658401390033e-04
	6.241472372592820e-05
	2.951617364279823e-01

 63	6.300000000000003e-01
	-3.876147692905355e-15
	-1.026299136764992e-18
	-1.772841778191609e-14
	5.906984411661209e-06
	5.788420918890077e-04
	6.798505653268793e-05
	2.951622537358792e-01

 64	6.400000000000003e-01
	-3.861813909278052e-15
	-1.053383454106461e-18
	-1.781939493420076e-14
	6.241544107228231e-06
	6.244333800400018e-04
	7.399800773779592e-05
	2.951628159600467e-01

 65	6.500000000000004e-01
	-3.848249292264585e-15
	-1.080974840419643e-18
	-1.790849428224352e-14
	6.590286979547647e-06
	6.726907638756566e-04
	8.047996774800814e-05
	2.951634261608186e-01

 66	6.600000000000004e-01
	-3.835438787392368e-15
	-1.109080677087287e-18
	-1.799572875288046e-14
	6.953478042224800e-06
	7.236536482298862e-04
	8.745777761336740e-05
	2.951640874849114e-01

 67	6.700000000000004e-01
	-3.823367257434665e-15
	-1.137708526648517e-18
	-1.808111233421474e-14
	7.331365326844989e-06
	7.773486099265534e-04
	9.495860641175947e-05
	2.951648031520620e-01

 68	6.800000000000004e-01
	-3.812019504879816e-15
	-1.166866137866147e-18
	-1.816466001832206e-14
	7.724178598455462e-06
	8.337883054743788e-04
	1.030098173019690e-04
	2.951655764398631e-01

 69	6.900000000000004e-01
	-3.801380293587654e-15
	-1.196561450813165e-18
	-1.824638774446956e-14
	8.132128129677393e-06
	8.929704844921407e-04
	1.116388231851958e-04
	2.951664106668286e-01

 70	7.000000000000004e-01
	-3.791434369613150e-15
	-1.226802601980334e-18
	-1.832631234296859e-14
	8.555403545557512e-06
	9.548771328862257e-04
	1.208729331580959e-04
	2.951673091738092e-01

 71	7.100000000000004e-01
	-3.782166481181798e-15
	-1.257597929407695e-18
	-1.840445147977288e-14
	8.994172751092134e-06
	1.019473768679216e-03
	1.307391911754717e-04
	2.951682753039535e-01

 72	7.200000000000004e-01
	-3.773561397804350e-15
	-1.288955977842486e-18
	-1.848082360192553e-14
	9.448580953005746e-06
	1.086708911578223e-03
	1.412642085610449e-04
	2.951693123813530e-01

 73	7.300000000000004e-01
	-3.765603928523202e-15
	-1.320885503925830e-18
	-1.855544788394826e-14
	9.918749786829387e-06
	1.156513744881356e-03
	1.524739922032417e-04
	2.951704236886901e-01

 74	7.400000000000004e-01
	-3.758278939285256e-15
	-1.353395481411604e-18
	-1.862834417525955e-14
	1.040477655961222e-05
	1.228801985185383e-03
	1.643937704432049e-04
	2.951716124440886e-01

 75	7.500000000000004e-01
	-3.751571369440126e-15
	-1.386495106419595e-18
	-1.869953294869922e-14
	1.090673361770623e-05
	1.303469971636234e-03
	1.770478187978753e-04
	2.951728817775287e-01

 76	7.600000000000005e-01
	-3.745466247365098e-15
	-1.420193802726425e-18
	-1.876903525022964e-14
	1.142466784800682e-05
	1.380396982244465e-03
	1.904592877567672e-04
	2.951742347071223e-01

 77	7.700000000000005e-01
	-3.739948705221361e-15
	-1.454501227097581e-18
	-1.883687264987642e-14
	1.195860031981693e-05
	1.459445780179741e-03
	2.046500349423925e-04
	2.951756741156144e-01

 78	7.800000000000005e-01
	-3.735003992848634e-15
	-1.489427274663762e-18
	-1.890306719396432e-14
	1.250852607315085e-05
	1.540463388093009e-03
	2.196404639280666e-04
	2.951772027274572e-01

 79	7.900000000000005e-01
	-3.730617490807719e-15
	-1.524982084345363e-18
	-1.896764135869718e-14
	1.307441405782222e-05
	1.623282083538609e-03
	2.354493719611781e-04
	2.951788230868128e-01

 80	8.000000000000005e-01
	-3.726774722582750e-15
	-1.561176044329740e-18
	-1.903061800512435e-14
	1.365620722609457e-05
	1.707720603636942e-03
	2.520938087446405e-04
	2.951805375368311e-01

 81	8.100000000000005e-01
	-3.723461365956995e-15
	-1.598019797605243e-18
	-1.909202033553009e-14
	1.425382278003688e-05
	1.793585542391194e-03
	2.695889482855158e-04
	2.951823482005292e-01

 82	8.200000000000005e-01
	-3.720663263577821e-15
	-1.635524247557587e-18
	-1.915187185127593e-14
	1.486715257304746e-05
	1.880672919703595e-03
	2.879479756304774e-04
	2.951842569635655e-01

 83	8.300000000000005e-01
	-3.718366432728289e-15
	-1.673700563633658e-18
	-1.921019631212093e-14
	1.549606366331723e-05
	1.968769897273005e-03
	3.071819900773347e-04
	2.951862654591915e-01

 84	8.400000000000005e-01
	-3.716557074324096e-15
	-1.712560187079037e-18
	-1.926701769703899e-14
	1.614039901532729e-05
	2.057656613322919e-03
	3.272999261859938e-04
	2.951883750555994e-01

 85	8.500000000000005e-01
	-3.715221581156029e-15
	-1.752114836756286e-18
	-1.932236016654730e-14
	1.679997834384341e-05
	2.147108105611318e-03
	3.483084936178356e-04
	2.951905868458234e-01

 86	8.600000000000005e-01
	-3.714346545399283e-15
	-1.792376515050021e-18
	-1.937624802655492e-14
	1.747459909330904e-05
	2.236896290486848e-03
	3.702121365173109e-04
	2.951929016403570e-01

 87	8.700000000000006e-01
	-3.713918765411954e-15
	-1.833357513867627e-18
	-1.942870569373578e-14
	1.816403754408039e-05
	2.326791964925444e-03
	3.930130128221294e-04
	2.951953199625545e-01

 88	8.800000000000006e-01
	-3.713925251845729e-15
	-1.875070420743100e-18
	-1.947975766242579e-14
	1.886805003560892e-05
	2.416566798519206e-03
	4.167109935571842e-04
	2.951978420468152e-01

 89	8.900000000000006e-01
	-3.714353233092844e-15
	-1.917528125053092e-18
	-1.952942847303924e-14
	1.958637429548709e-05
	2.505995283275545e-03
	4.413036818411012e-04
	2.952004678395679e-01

 90	9.000000000000006e-01
	-3.715190160093471e-15
	-1.960743824353851e-18
	-1.957774268199588e-14
	2.031873086224724e-05
	2.594856610768375e-03
	4.667864510211818e-04
	2.952031970029356e-01

 91	9.100000000000006e-01
	-3.716423710528676e-15
	-2.004731030849048e-18
	-1.962472483314535e-14
	2.106482458895752e-05
	2.682936448585761e-03
	4.931525010601384e-04
	2.952060289209854e-01

 92	9.200000000000006e-01
	-3.718041792423910e-15
	-2.049503577998209e-18
	-1.967039943067279e-14
	2.182434621400557e-05
	2.770028591038442e-03
	5.203929320330346e-04
	2.952089627083910e-01

 93	9.300000000000006e-01
	-3.720032547188630e-15
	-2.095075627275134e-18
	-1.971479091346507e-14
	2.259697398500618e-05
	2.855936462611806e-03
	5.484968333608584e-04
	2.952119972213159e-01

 94	9.400000000000006e-01
	-3.722384352117360e-15
	-2.141461675088570e-18
	-1.975792363091445e-14
	2.338237532151780e-05
	2.940474456528821e-03
	5.774513872123515e-04
	2.952151310702671e-01

 95	9.500000000000006e-01
	-3.725085822377922e-15
	-2.188676559873061e-18
	-1.979982182013282e-14
	2.418020850220545e-05
	3.023469094907044e-03
	6.072419843511890e-04
	2.952183626347076e-01

 96	9.600000000000006e-01
	-3.728125812511987e-15
	-2.236735469362888e-18
	-1.984050958454764e-14
	2.499012436223520e-05
	3.104760001202371e-03
	6.378523505927191e-04
	2.952216900791317e-01

 97	9.700000000000006e-01
	-3.731493417473499e-15
	-2.285653948058216e-18
	-1.988001087384690e-14
	2.581176798702798e-05
	3.184200679806855e-03
	6.692646819637528e-04
	2.952251113703414e-01

 98	9.800000000000006e-01
	-3.735177973229543e-15
	-2.335447904894994e-18
	-1.991834946523999e-14
	2.664478038901427e-05
	3.261659101687328e-03
	7.014597866289899e-04
	2.952286242956466e-01

 99	9.900000000000007e-01
	-3.739169056948629e-15
	-2.386133621128585e-18
	-1.995554894599731e-14
	2.748880015471531e-05
	3.337018098713132e-03
	7.344172316568483e-04
	2.952322264817193e-01

 100	1.000000000000001e+00
	-3.743456486800405e-15
	-2.437727758442074e-18
	-1.999163269723144e-14
	2.834346505029737e-05
	3.410175572737387e-03
	7.681154927422648e-04
	2.952359154138363e-01

 101	1.010000000000001e+00
	-3.748030321390542e-15
	-2.490247367289602e-18
	-2.002662387888015e-14
	2.920841357469998e-05
	3.481044528501189e-03
	8.025321050810721e-04
	2.952396884552477e-01

 102	1.020000000000001e+00
	-3.752880858854216e-15
	-2.543709895484543e-18
	-2.006054541585086e-14
	3.008328645048682e-05
	3.549552941975694e-03
	8.376438136949320e-04
	2.952435428664799e-01

 103	1.030000000000001e+00
	-3.757998635630324e-15
	-2.598133197043640e-18
	-2.009341998528532e-14
	3.096772804370725e-05
	3.615643477818711e-03
	8.734267216334118e-04
	2.952474758242929e-01

 104	1.040000000000001e+00
	-3.763374424939143e-15
	-2.653535541296179e-18
	-2.012527000490189e-14
	3.186138770524060e-05
	3.679273071188479e-03
	9.098564346249671e-04
	2.952514844401756e-01

 105	1.050000000000001e+00
	-3.768999234983968e-15
	-2.709935622269054e-18
	-2.015611762237367e-14
	3.276392102732464e-05
	3.740412390240352e-03
	9.469082009072344e-04
	2.952555657781376e-01

 106	1.060000000000001e+00
	-3.774864306898119e-15
	-2.767352568357015e-18
	-2.018598470569901e-14
	3.367499101020041e-05
	3.799045196250875e-03
	9.845570451336026e-04
	2.952597168717372e-01

 107	1.070000000000001e+00
	-3.780961112456724e-15
	-2.825805952287904e-18
	-2.021489283452224e-14
	3.459426913503579e-05
	3.855167618507464e-03
	1.022777895423929e-03
	2.952639347401465e-01

 108	1.080000000000001e+00
	-3.787281351572668e-15
	-2.885315801393494e-18
	-2.024286329236201e-14
	3.552143634048282e-05
	3.908787360909746e-03
	1.061545702797583e-03
	2.952682164032125e-01

 109	1.090000000000001e+00
	-3.793816949595132e-15
	-2.945902608194461e-18
	-2.026991705970505e-14
	3.645618390137483e-05
	3.959922856704461e-03
	1.100835552393882e-03
	2.952725588954320e-01

 110	1.100000000000001e+00
	-3.800560054428443e-15
	-3.007587341310530e-18
	-2.029607480792381e-14
	3.739821420915537e-05
	4.008602386970817e-03
	1.140622766044958e-03
	2.952769592787788e-01

 111	1.110000000000001e+00
	-3.807503033487956e-15
	-3.070391456705012e-18
	-2.032135689397735e-14
	3.834724145464433e-05
	4.054863177442827e-03
	1.180882995916861e-03
	2.952814146543674e-01

 112	1.120000000000001e+00
	-3.814638470509321e-15
	-3.134336909273918e-18
	-2.034578335585502e-14
	3.930299221467107e-05
	4.098750487053263e-03
	1.221592309074126e-03
	2.952859221729335e-01

 113	1.130000000000001e+00
	-3.821959162226330e-15
	-3.199446164790108e-18
	-2.036937390872430e-14
	4.026520594493985e-05
	4.140316700261543e-03
	1.262727262949866e-03
	2.952904790441425e-01

 114	1.140000000000001e+00
	-3.829458114932166e-15
	-3.265742212212237e-18
	-2.039214794174402e-14
	4.123363538222650e-05
	4.179620433832341e-03
	1.304264971816567e-03
	2.952950825447540e-01

 115	1.150000000000001e+00
	-3.837128540937626e-15
	-3.333248576370086e-18
	-2.041412451550654e-14
	4.220804685964279e-05
	4.216725667306192e-03
	1.346183164451875e-03
	2.952997300256460e-01

 116	1.160000000000001e+00
	-3.844963854939749e-15
	-3.401989331036078e-18
	-2.043532236007231e-14
	4.318822053923550e-05
	4.251700904983155e-03
	1.388460233278337e-03
	2.953044189177761e-01

 117	1.170000000000001e+00
	-3.852957670313130e-15
	-3.471989112394999e-18
	-2.045575987356230e-14
	4.417395056662284e-05
	4.284618375859198e-03
	1.431075275326914e-03
	2.953091467371129e-01

 118	1.180000000000001e+00
	-3.861103795335610e-15
	-3.543273132922976e-18
	-2.047545512127482e-14
	4.516504515270924e-05
	4.315553276635970e-03
	1.474008125431420e-03
	2.953139110885839e-01

 119	1.190000000000001e+00
	-3.869396229359432e-15
	-3.615867195687885e-18
	-2.049442583529399e-14
	4.616132658776173e-05
	4.344583061688259e-03
	1.517239382105438e-03
	2.953187096691310e-01

 120	1.200000000000001e+00
	-3.877829158938286e-15
	-3.689797709083195e-18
	-2.051268941455887e-14
	4.716263119329608e-05
	4.371786782735278e-03
	1.560750426586212e-03
	2.953235402699133e-01

 121	1.210000000000001e+00
	-3.886396953919821e-15
	-3.765091702008607e-18
	-2.053026292536329e-14
	4.816880921729640e-05
	4.397244479929869e-03
	1.604523435551654e-03
	2.953284007777274e-01

 122	1.220000000000001e+00
	-3.895094163512991e-15
	-3.841776839509377e-18
	-2.054716310225756e-14
	4.917972467830481e-05
	4.421036625160755e-03
	1.648541388028986e-03
	2.953332891757384e-01

 123	1.230000000000001e+00
	-3.903915512338431e-15
	-3.919881438889458e-18
	-2.056340634932473e-14
	5.019525516386176e-05
	4.443243617558386e-03
	1.692788067017053e-03
	2.953382035435497e-01

 124	1.240000000000001e+00
	-3.912855896470153e-15
	-3.999434486311863e-18
	-2.057900874180470e-14
	5.121529158866772e-05
	4.463945330503013e-03
	1.737248056340594e-03
	2.953431420567045e-01

 125	1.250000000000001e+00
	-3.921910379475784e-15
	-4.080465653900727e-18
	-2.059398602804139e-14
	5.223973791767571e-05
	4.483220708851082e-03
	1.781906733244421e-03
	2.953481029856905e-01

 126	1.260000000000001e+00
	-3.931074188462137e-15
	-4.163005317361129e-18
	-2.060835363172862e-14
	5.326851085913264e-05
	4.501147414617841e-03
	1.826750257220354e-03
	2.953530846944721e-01

 127	1.270000000000001e+00
	-3.940342710132790e-15
	-4.247084574131420e-18
	-2.062212665443208e-14
	5.430153953234770e-05
	4.517801518971024e-03
	1.871765555539730e-03
	2.953580856386585e-01

 128	1.280000000000001e+00
	-3.949711486863187e-15
	-4.332735262085432e-18
	-2.063531987836528e-14
	5.533876511471800e-05
	4.533257238097478e-03
	1.916940305941532e-03
	2.953631043633177e-01

 129	1.290000000000001e+00
	-3.959176212799101e-15
	-4.419989978801153e-18
	-2.064794776939890e-14
	5.638014047225863e-05
	4.547586710289863e-03
	1.962262916900462e-03
	2.953681395005342e-01

 130	1.300000000000001e+00
	-3.968732729983018e-15
	-4.508882101413596e-18
	-2.066002448028372e-14
	5.742562977760548e-05
	4.560859811458713e-03
	2.007722505872245e-03
	2.953731897667010e-01

 131	1.310000000000001e+00
	-3.978377024513478e-15
	-4.599445807069982e-18
	-2.067156385406830e-14
	5.847520811914986e-05
	4.573144006192712e-03
	2.053308875884640e-03
	2.953782539596629e-01

 132	1.320000000000001e+00
	-3.988105222741151e-15
	-4.691716094006897e-18
	-2.068257942769388e-14
	5.952886110468134e-05
	4.584504231464372e-03
	2.099012490814295e-03
	2.953833309556756e-01

 133	1.330000000000001e+00
	-3.997913587505881e-15
	-4.785728803268348e-18
	-2.069308443574908e-14
	6.058658446260032e-05
	4.595002810094513e-03
	2.144824449660012e-03
	2.953884197062919e-01

 134	1.340000000000001e+00
	-4.007798514417634e-15
	-4.881520641086034e-18
	-2.070309181436911e-14
	6.164838364348584e-05
	4.604699391145854e-03
	2.190736460095085e-03
	2.953935192351383e-01

 135	1.350000000000001e+00
	-4.017756528185096e-15
	-4.979129201942169e-18
	-2.071261420526376e-14
	6.271427342450412e-05
	4.613650914500730e-03
	2.236740811552948e-03
	2.953986286346709e-01

 136	1.360000000000001e+00
	-4.027784278994172e-15
	-5.078592992337275e-18
	-2.072166395986008e-14
	6.378427751887921e-05
	4.621911596988886e-03
	2.282830348073930e-03
	2.954037470629008e-01

 137	1.370000000000001e+00
	-4.037878538939261e-15
	-5.179951455286800e-18
	-2.073025314354642e-14
	6.485842819237843e-05
	4.629532937559253e-03
	2.328998441115096e-03
	2.954088737401274e-01

 138	1.380000000000001e+00
	-4.048036198509358e-15
	-5.283244995567667e-18
	-2.073839354000474e-14
	6.593676588851797e-05
	4.636563739131383e-03
	2.375238962500844e-03
	2.954140079457004e-01

 139	1.390000000000001e+00
	-4.058254263131007e-15
	-5.388515005741994e-18
	-2.074609665561928e-14
	6.701933886396172e-05
	4.643050144913020e-03
	2.421546257669265e-03
	2.954191490148142e-01

 140	1.400000000000001e+00
	-4.068529849769779e-15
	-5.495803892981701e-18
	-2.075337372395052e-14
	6.810620283536026e-05
	4.649035687125496e-03
	2.467915119347660e-03
	2.954242963353751e-01

 141	1.410000000000001e+00
	-4.078860183591788e-15
	-5.605155106721583e-18
	-2.076023571026324e-14
	6.919742063868420e-05
	4.654561346236897e-03
	2.514340761771312e-03
	2.954294493449284e-01

 142	1.420000000000001e+00
	-4.089242594686503e-15
	-5.716613167166162e-18
	-2.076669331609929e-14
	7.029306190190767e-05
	4.659665618959122e-03
	2.560818795540985e-03
	2.954346075276794e-01

 143	1.430000000000001e+00
	-4.099674514851763e-15
	-5.830223694681727e-18
	-2.077275698388512e-14
	7.139320273173668e-05
	4.664384593419796e-03
	2.607345203198525e-03
	2.954397704115829e-01

 144	1.440000000000001e+00
	-4.110153474442164e-15
	-5.946033440099563e-18
	-2.077843690156566e-14
	7.249792541490884e-05
	4.668752030068174e-03
	2.653916315584219e-03
	2.954449375655666e-01

 145	1.450000000000001e+00
	-4.120677099281102e-15
	-6.064090315963705e-18
	-2.078374300725599e-14
	7.360731813446596e-05
	4.672799447019049e-03
	2.700528789026726e-03
	2.954501085968166e-01

 146	1.460000000000001e+00
	-4.131243107637193e-15
	-6.184443428752415e-18
	-2.078868499390357e-14
	7.472147470125642e-05
	4.676556208673726e-03
	2.747179583403344e-03
	2.954552831482027e-01

 147	1.470000000000001e+00
	-4.141849307265532e-15
	-6.307143112107755e-18
	-2.079327231395301e-14
	7.584049430082718e-05
	4.680049616586894e-03
	2.793865941098111e-03
	2.954604608957954e-01

 148	1.480000000000001e+00
	-4.152493592513637e-15
	-6.432240961106560e-18
	-2.079751418400768e-14
	7.696448125575770e-05
	4.683305001668485e-03
	2.840585366875262e-03
	2.954656415464966e-01

 149	1.490000000000001e+00
	-4.163173941492516e-15
	-6.559789867607452e-18
	-2.080141958948109e-14
	7.809354480339859e-05
	4.686345816921878e-03
	2.887335608676976e-03
	2.954708248357934e-01

 150	1.500000000000001e+00
	-4.173888413312511e-15
	-6.689844056711317e-18
	-2.080499728923276e-14
	7.922779888891275e-05
	4.689193730024066e-03
	2.934114639347334e-03
	2.954760105256082e-01

 151	1.510000000000001e+00
	-4.184635145383925e-15
	-6.822459124372065e-18
	-2.080825582018290e-14
	8.036736197343918e-05
	4.691868715148522e-03
	2.980920639277477e-03
	2.954811984022674e-01

 152	1.520000000000001e+00
	-4.195412350782031e-15
	-6.957692076198315e-18
	-2.081120350190130e-14
	8.151235685715238e-05
	4.694389143519046e-03
	3.027751979961754e-03
	2.954863882745778e-01

 153	1.530000000000001e+00
	-4.206218315676229e-15
	-7.095601367483482e-18
	-2.081384844116513e-14