Title: ** sch_path: /home/andylithia/openmpw/project-yatsuhashi-chip1/xschem/gmid_test/nmos_test.sch
Date: Tue Jul 19 23:15:45  2022
Plotname: DC transfer characteristic
Flags: real
No. Variables: 8
No. Points: 181
Variables:
	0	v(v-sweep)	voltage
	1	@m.xm1.msky130_fd_pr__nfet_01v8[cgb]	capacitance
	2	@m.xm1.msky130_fd_pr__nfet_01v8[cgd]	capacitance
	3	@m.xm1.msky130_fd_pr__nfet_01v8[cgs]	capacitance
	4	@m.xm1.msky130_fd_pr__nfet_01v8[gds]	admittance
	5	@m.xm1.msky130_fd_pr__nfet_01v8[gm]	admittance
	6	i(@m.xm1.msky130_fd_pr__nfet_01v8[id])	current
	7	v(@m.xm1.msky130_fd_pr__nfet_01v8[vth])	voltage
Values:
 0	0.000000000000000e+00
	-9.990167762860771e-15
	-6.676373565103235e-19
	-1.821825139361927e-14
	1.780038617078171e-08
	7.195155070229510e-07
	8.843090201382140e-08
	2.023194433839590e-01

 1	1.000000000000000e-02
	-9.878524557950576e-15
	-6.838817443257211e-19
	-1.848092285158535e-14
	1.924924590854160e-08
	7.798473905834490e-07
	9.592365754101627e-08
	2.023194440037455e-01

 2	2.000000000000000e-02
	-9.768236318887177e-15
	-7.004877063941444e-19
	-1.874336651178672e-14
	2.081003256557735e-08
	8.452562930974680e-07
	1.040447643238528e-07
	2.023194446759351e-01

 3	3.000000000000000e-02
	-9.659328170659014e-15
	-7.174621698189541e-19
	-1.900548487623870e-14
	2.249072669019327e-08
	9.161844701198047e-07
	1.128471708503590e-07
	2.023194454050123e-01

 4	4.000000000000000e-02
	-9.551824527714846e-15
	-7.348121718644362e-19
	-1.926718090817618e-14
	2.429980834955685e-08
	9.931156594876822e-07
	1.223884522122868e-07
	2.023194461958623e-01

 5	5.000000000000000e-02
	-9.445749047477561e-15
	-7.525448618325792e-19
	-1.952835816181246e-14
	2.624628166945942e-08
	1.076579312174918e-06
	1.327312457285333e-07
	2.023194470538170e-01

 6	6.000000000000000e-02
	-9.341124586039109e-15
	-7.706675030012963e-19
	-1.978892091043664e-14
	2.833969998116932e-08
	1.167155264936698e-06
	1.439437310524411e-07
	2.023194479846908e-01

 7	7.000000000000001e-02
	-9.237973156136771e-15
	-7.891874746260532e-19
	-2.004877427250579e-14
	3.059019153897147e-08
	1.265478895902919e-06
	1.561001593845126e-07
	2.023194489948313e-01

 8	8.000000000000000e-02
	-9.136315887502247e-15
	-8.081122740070566e-19
	-2.030782433539771e-14
	3.300848576702374e-08
	1.372246806736180e-06
	1.692814368360085e-07
	2.023194500911770e-01

 9	9.000000000000000e-02
	-9.036172989667165e-15
	-8.274495186242694e-19
	-2.056597827649986e-14
	3.560593998906562e-08
	1.488223077309754e-06
	1.835757674368899e-07
	2.023194512813081e-01

 10	9.999999999999999e-02
	-8.937563717298840e-15
	-8.472069483421320e-19
	-2.082314448132099e-14
	3.839456658926127e-08
	1.614246141018681e-06
	1.990793617520177e-07
	2.023194525735202e-01

 11	1.100000000000000e-01
	-8.840506338131097e-15
	-8.673924276863963e-19
	-2.107923265832554e-14
	4.138706054709838e-08
	1.751236330743898e-06
	2.158972175604531e-07
	2.023194539768946e-01

 12	1.200000000000000e-01
	-8.745018103545581e-15
	-8.880139481952227e-19
	-2.133415395020480e-14
	4.459682728376670e-08
	1.900204147062729e-06
	2.341439795610329e-07
	2.023194555013755e-01

 13	1.300000000000000e-01
	-8.651115221848741e-15
	-9.090796308465717e-19
	-2.158782104131335e-14
	4.803801075183969e-08
	2.062259301448502e-06
	2.539448855894133e-07
	2.023194571578690e-01

 14	1.400000000000000e-01
	-8.558812834280143e-15
	-9.305977285643888e-19
	-2.184014826101737e-14
	5.172552169438485e-08
	2.238620587826120e-06
	2.754368073628507e-07
	2.023194589583289e-01

 15	1.500000000000000e-01
	-8.468124993777703e-15
	-9.525766288057877e-19
	-2.209105168271706e-14
	5.567506599378741e-08
	2.430626635834125e-06
	2.987693943029737e-07
	2.023194609158713e-01

 16	1.600000000000000e-01
	-8.379064646515394e-15
	-9.750248562310934e-19
	-2.234044921832421e-14
	5.990317302468935e-08
	2.639747598366468e-06
	3.241063295171618e-07
	2.023194630449034e-01

 17	1.700000000000000e-01
	-8.291643616218841e-15
	-9.979510754598258e-19
	-2.258826070799676e-14
	6.442722391943245e-08
	2.867597824292420e-06
	3.516267075372530e-07
	2.023194653612441e-01

 18	1.800000000000000e-01
	-8.205872591254980e-15
	-1.021364093914202e-18
	-2.283440800494837e-14
	6.926547964825564e-08
	3.115949564536043e-06
	3.815265439104197e-07
	2.023194678822805e-01

 19	1.900000000000000e-01
	-8.121761114481501e-15
	-1.045272864752664e-18
	-2.307881505517499e-14
	7.443710881032970e-08
	3.386747755787037e-06
	4.140204272004355e-07
	2.023194706271318e-01

 20	2.000000000000000e-01
	-8.039317575832911e-15
	-1.069686489896458e-18
	-2.332140797195847e-14
	7.996221502537385e-08
	3.682125920848065e-06
	4.493433243749670e-07
	2.023194736168197e-01

 21	2.100000000000000e-01
	-7.958549207610473e-15
	-1.094614223150510e-18
	-2.356211510502936e-14
	8.586186380920279e-08
	4.004423217834170e-06
	4.877525509117832e-07
	2.023194768744725e-01

 22	2.200000000000001e-01
	-7.879462082434774e-15
	-1.120065473422009e-18
	-2.380086710429166e-14
	9.215810881001956e-08
	4.356202661958043e-06
	5.295299172379245e-07
	2.023194804255425e-01

 23	2.300000000000001e-01
	-7.802061113810572e-15
	-1.146049808038441e-18
	-2.403759697803388e-14
	9.887401727568551e-08
	4.740270533286933e-06
	5.749840633028657e-07
	2.023194842980471e-01

 24	2.400000000000001e-01
	-7.726350059245959e-15
	-1.172576956168307e-18
	-2.427224014557123e-14
	1.060336946154662e-07
	5.159696971477290e-06
	6.244529931602970e-07
	2.023194885228205e-01

 25	2.500000000000001e-01
	-7.652331525859906e-15
	-1.199656812346041e-18
	-2.450473448428494e-14
	1.136623079129366e-07
	5.617837743916396e-06
	6.783068213717480e-07
	2.023194931338131e-01

 26	2.600000000000001e-01
	-7.580006978404961e-15
	-1.227299440104641e-18
	-2.473502037104503e-14
	1.217861082398946e-07
	6.118357156784030e-06
	7.369507428270074e-07
	2.023194981683975e-01

 27	2.700000000000001e-01
	-7.509376749625302e-15
	-1.255515075717898e-18
	-2.496304071802302e-14
	1.304324516141483e-07
	6.665252059152894e-06
	8.008282371759342e-07
	2.023195036677187e-01

 28	2.800000000000001e-01
	-7.440440052864028e-15
	-1.284314132055226e-18
	-2.518874100292105e-14
	1.396298184371404e-07
	7.262876868276188e-06
	8.704245184596600e-07
	2.023195096770598e-01

 29	2.900000000000001e-01
	-7.373194996827842e-15
	-1.313707202551529e-18
	-2.541206929366154e-14
	1.494078312403447e-07
	7.915969519583119e-06
	9.462702396889546e-07
	2.023195162462553e-01

 30	3.000000000000001e-01
	-7.307638602412244e-15
	-1.343705065295083e-18
	-2.563297626760148e-14
	1.597972705625388e-07
	8.629678217594038e-06
	1.028945461018253e-06
	2.023195234301311e-01

 31	3.100000000000001e-01
	-7.243766821485882e-15
	-1.374318687235663e-18
	-2.585141522535155e-14
	1.708300887732701e-07
	9.409588833984924e-06
	1.119083888777461e-06
	2.023195312889838e-01

 32	3.200000000000001e-01
	-7.181574557528601e-15
	-1.405559228516532e-18
	-2.606734209929702e-14
	1.825394216512259e-07
	1.026175276645595e-05
	1.217377390924448e-06
	2.023195398891049e-01

 33	3.300000000000001e-01
	-7.121055688014285e-15
	-1.437438046932160e-18
	-2.628071545693446e-14
	1.949595975199833e-07
	1.119271503703754e-05
	1.324580792444059e-06
	2.023195493033354e-01

 34	3.400000000000001e-01
	-7.062203088427049e-15
	-1.469966702515579e-18
	-2.649149649915047e-14
	2.081261437377044e-07
	1.220954237121473e-05
	1.441516951820026e-06
	2.023195596116722e-01

 35	3.500000000000001e-01
	-7.005008657797184e-15
	-1.503156962257696e-18
	-2.669964905358450e-14
	2.220757903320459e-07
	1.331985096009023e-05
	1.569082116924984e-06
	2.023195709019163e-01

 36	3.600000000000002e-01
	-6.949463345641012e-15
	-1.537020804961589e-18
	-2.690513956322930e-14
	2.368464705669015e-07
	1.453183356713718e-05
	1.708251555492349e-06
	2.023195832703710e-01

 37	3.700000000000002e-01
	-6.895557180188471e-15
	-1.571570426235544e-18
	-2.710793707043455e-14
	2.524773182238801e-07
	1.585428559944289e-05
	1.860085451740859e-06
	2.023195968225793e-01

 38	3.800000000000002e-01
	-6.843279297781444e-15
	-1.606818243627369e-18
	-2.730801319648876e-14
	2.690086613787554e-07
	1.729662972133156e-05
	2.025735056709721e-06
	2.023196116741176e-01

 39	3.900000000000002e-01
	-6.792617973325543e-15
	-1.642776901903610e-18
	-2.750534211696503e-14
	2.864820124518025e-07
	1.886893854664299e-05
	2.206449075431541e-06
	2.023196279514349e-01

 40	4.000000000000002e-01
	-6.743560651679096e-15
	-1.679459278476650e-18
	-2.769990053302312e-14
	3.049400543112668e-07
	2.058195490559450e-05
	2.403580269228107e-06
	2.023196457927402e-01

 41	4.100000000000002e-01
	-6.696093979863744e-15
	-1.716878488983945e-18
	-2.789166763886786e-14
	3.244266222112409e-07
	2.244710914406423e-05
	2.618592246178868e-06
	2.023196653489439e-01

 42	4.200000000000002e-01
	-6.650203839982323e-15
	-1.755047893021757e-18
	-2.808062508557034e-14
	3.449866813497379e-07
	2.447653287841957e-05
	2.853066407212362e-06
	2.023196867846282e-01

 43	4.300000000000002e-01
	-6.605875382732353e-15
	-1.793981100038379e-18
	-2.826675694146112e-14
	3.666662998394649e-07
	2.668306859888400e-05
	3.108709009344672e-06
	2.023197102790826e-01

 44	4.400000000000002e-01
	-6.563093061404602e-15
	-1.833691975389231e-18
	-2.845004964931087e-14
	3.895126168936512e-07
	2.908027449021893e-05
	3.387358301391218e-06
	2.023197360273672e-01

 45	4.500000000000002e-01
	-6.521840666259971e-15
	-1.874194646559111e-18
	-2.863049198051428e-14
	4.135738060423118e-07
	3.168242382157720e-05
	3.690991681072983e-06
	2.023197642414132e-01

 46	4.600000000000002e-01
	-6.482101359180066e-15
	-1.915503509553747e-18
	-2.880807498649625e-14
	4.388990332109359e-07
	3.450449824920630e-05
	4.021732815906292e-06
	2.023197951511555e-01

 47	4.700000000000003e-01
	-6.443857708490856e-15
	-1.957633235467188e-18
	-2.898279194755812e-14
	4.655384095143199e-07
	3.756217437770770e-05
	4.381858663701652e-06
	2.023198290056924e-01

 48	4.800000000000003e-01
	-6.407091723861481e-15
	-2.000598777226694e-18
	-2.915463831938404e-14
	4.935429386433651e-07
	4.087180293924975e-05
	4.773806322011988e-06
	2.023198660744478e-01

 49	4.900000000000003e-01
	-6.371784891185343e-15
	-2.044415376521238e-18
	-2.932361167742289e-14
	5.229644587524150e-07
	4.445037997683987e-05
	5.200179629583977e-06
	2.023199066483626e-01

 50	5.000000000000002e-01
	-6.337918207353475e-15
	-2.089098570917653e-18
	-2.948971165936217e-14
	5.538555787897654e-07
	4.831550945882038e-05
	5.663755436922335e-06
	2.023199510410540e-01

 51	5.100000000000002e-01
	-6.305472214834891e-15
	-2.134664201168230e-18
	-2.965293990590563e-14
	5.862696092541447e-07
	5.248535680819417e-05
	6.167489457614844e-06
	2.023199995899722e-01

 52	5.200000000000002e-01
	-6.274427035983536e-15
	-2.181128418716390e-18
	-2.981330000006258e-14
	6.202604874058136e-07
	5.697859290317150e-05
	6.714521607253918e-06
	2.023200526575309e-01

 53	5.300000000000002e-01
	-6.244762406994541e-15
	-2.228507693403129e-18
	-2.997079740515445e-14
	6.558826970126071e-07
	6.181432819501839e-05
	7.308180732790536e-06
	2.023201106321643e-01

 54	5.400000000000003e-01
	-6.216457711438768e-15
	-2.276818821381168e-18
	-3.012543940173654e-14
	6.931911827683373e-07
	6.701203669613516e-05
	7.951988632137251e-06
	2.023201739293393e-01

 55	5.500000000000003e-01
	-6.189492013307964e-15
	-2.326078933241285e-18
	-3.027723502362927e-14
	7.322412595840531e-07
	7.259146971518488e-05
	8.649663261976096e-06
	2.023202429924773e-01

 56	5.600000000000003e-01
	-6.163844089508202e-15
	-2.376305502356111e-18
	-3.042619499324676e-14
	7.730885170210325e-07
	7.857255935639979e-05
	9.405121031187411e-06
	2.023203182937723e-01

 57	5.700000000000003e-01
	-6.139492461743634e-15
	-2.427516353447547e-18
	-3.057233165640391e-14
	8.157887192078117e-07
	8.497531195580671e-05
	1.022247807825784e-05
	2.023204003348649e-01

 58	5.800000000000003e-01
	-6.116415427737648e-15
	-2.479729671383349e-18
	-3.071565891677620e-14
	8.603977006615656e-07
	9.181969179639184e-05
	1.110605043359382e-05
	2.023204896473981e-01

 59	5.900000000000003e-01
	-6.094591091742689e-15
	-2.532964010209189e-18
	-3.085619217017951e-14
	9.069712585161215e-07
	9.912549562496281e-05
	1.206035297199190e-05
	2.023205867933752e-01

 60	6.000000000000003e-01
	-6.073997394295020e-15
	-2.587238302421673e-18
	-3.099394823882997e-14
	9.555650417436339e-07
	1.069122186828535e-04
	1.309009706669253e-05
	2.023206923653282e-01

 61	6.100000000000003e-01
	-6.054612141174863e-15
	-2.642571868490058e-18
	-3.112894530573521e-14
	1.006234438043728e-06
	1.151989131573305e-04
	1.420018686454484e-05
	2.023208069862842e-01

 62	6.200000000000003e-01
	-6.036413031537145e-15
	-2.698984426632040e-18
	-3.126120284936182e-14
	1.059034459161415e-06
	1.240040401567713e-04
	1.539571411187431e-05
	2.023209313094673e-01

 63	6.300000000000003e-01
	-6.019377685181933e-15
	-2.756496102851342e-18
	-3.139074157871451e-14
	1.114019625481550e-06
	1.333453165059774e-04
	1.668195147265221e-05
	2.023210660177728e-01

 64	6.400000000000003e-01
	-6.003483668938243e-15
	-2.815127441244417e-18
	-3.151758336895581e-14
	1.171243850832175e-06
	1.432395578438060e-04
	1.806434429448553e-05
	2.023212118229195e-01

 65	6.500000000000004e-01
	-5.988708522138905e-15
	-2.874899414582281e-18
	-3.164175119768503e-14
	1.230760328509204e-06
	1.537025196785126e-04
	1.954850079365202e-05
	2.023213694643667e-01

 66	6.600000000000004e-01
	-5.975029781167576e-15
	-2.935833435177229e-18
	-3.176326908198969e-14
	1.292621419609675e-06
	1.647487382118551e-04
	2.114018064777422e-05
	2.023215397078657e-01

 67	6.700000000000004e-01
	-5.962425003063689e-15
	-2.997951366040270e-18
	-3.188216201637186e-14
	1.356878544827568e-06
	1.763913728758396e-04
	2.284528200352718e-05
	2.023217233437365e-01

 68	6.800000000000004e-01
	-5.950871788173659e-15
	-3.061275532339420e-18
	-3.199845591164625e-14
	1.423582080923893e-06
	1.886420526312160e-04
	2.466982692678296e-05
	2.023219211848090e-01

 69	6.900000000000004e-01
	-5.940347801841105e-15
	-3.125828733164782e-18
	-3.211217753489695e-14
	1.492781263128972e-06
	2.015107281497369e-04
	2.661994534348649e-05
	2.023221340640377e-01

 70	7.000000000000004e-01
	-5.930830795131177e-15
	-3.191634253612179e-18
	-3.222335445057401e-14
	1.564524094768306e-06
	2.150055320388076e-04
	2.870185754100342e-05
	2.023223628318095e-01

 71	7.100000000000004e-01
	-5.922298624588104e-15
	-3.258715877191644e-18
	-3.233201496280126e-14
	1.638857265422581e-06
	2.291326492640735e-04
	3.092185532129409e-05
	2.023226083529514e-01

 72	7.200000000000004e-01
	-5.914729271026963e-15
	-3.327097898571455e-18
	-3.243818805896213e-14
	1.715826078935799e-06
	2.438961998802430e-04
	3.328628191863989e-05
	2.023228715034293e-01

 73	7.300000000000004e-01
	-5.908100857364442e-15
	-3.396805136667061e-18
	-3.254190335462010e-14
	1.795474392572255e-06
	2.592981360915221e-04
	3.580151081534393e-05
	2.023231531668053e-01

 74	7.400000000000004e-01
	-5.902391665495168e-15
	-3.467862948084779e-18
	-3.264319103982625e-14
	1.877844568592773e-06
	2.753381555301460e-04
	3.847392360841832e-05
	2.023234542304398e-01

 75	7.500000000000004e-01
	-5.897580152222720e-15
	-3.540297240929931e-18
	-3.274208182685755e-14
	1.962977439472452e-06
	2.920136324654239e-04
	4.130988709830415e-05
	2.023237755814929e-01

 76	7.600000000000005e-01
	-5.893644964257060e-15
	-3.614134488991193e-18
	-3.283860689942505e-14
	2.050912287916948e-06
	3.093195684386803e-04
	4.431572978674150e-05
	2.023241181027653e-01

 77	7.700000000000005e-01
	-5.890564952291403e-15
	-3.689401746310410e-18
	-3.293279786338328e-14
	2.141686842751846e-06
	3.272485635647340e-04
	4.749771798460178e-05
	2.023244826684070e-01

 78	7.800000000000005e-01
	-5.888319184174308e-15
	-3.766126662150899e-18
	-3.302468669896724e-14
	2.235337291661817e-06
	3.457908094528054e-04
	5.086203174147942e-05
	2.023248701395693e-01

 79	7.900000000000005e-01
	-5.886886957193396e-15
	-3.844337496374037e-18
	-3.311430571457855e-14
	2.331898311643905e-06
	3.649341043845995e-04
	5.441474081679871e-05
	2.023252813600100e-01

 80	8.000000000000005e-01
	-5.886247809489669e-15
	-3.924063135237741e-18
	-3.320168750213509e-14
	2.431403117914480e-06
	3.846638910513860e-04
	5.816178091688162e-05
	2.023257171517551e-01

 81	8.100000000000005e-01
	-5.886381530622140e-15
	-4.005333107628251e-18
	-3.328686489399512e-14
	2.533883531874562e-06
	4.049633168026830e-04
	6.210893042368553e-05
	2.023261783108204e-01

 82	8.200000000000005e-01
	-5.887268171303588e-15
	-4.088177601738569e-18
	-3.336987092146223e-14
	2.639370068595905e-06
	4.258133160045162e-04
	6.626178783864540e-05
	2.023266656030943e-01

 83	8.300000000000005e-01
	-5.888888052329996e-15
	-4.172627482206648e-18
	-3.345073877487152e-14
	2.747892044143372e-06
	4.471927137535070e-04
	7.062575015925199e-05
	2.023271797603976e-01

 84	8.400000000000005e-01
	-5.891221772726354e-15
	-4.258714307726724e-18
	-3.352950176525509e-14
	2.859477702900767e-06
	4.690783498524384e-04
	7.520599239671234e-05
	2.023277214767964e-01

 85	8.500000000000005e-01
	-5.894250217132720e-15
	-4.346470349149889e-18
	-3.360619328757990e-14
	2.974154364920770e-06
	4.914452216315718e-04
	8.000744843044372e-05
	2.023282914052069e-01

 86	8.600000000000005e-01
	-5.897954562455132e-15
	-4.435928608085351e-18
	-3.368084678554811e-14
	3.091948593178269e-06
	5.142666439053736e-04
	8.503479337947149e-05
	2.023288901543458e-01

 87	8.700000000000006e-01
	-5.902316283805861e-15
	-4.527122836022332e-18
	-3.375349571794629e-14
	3.212886380473504e-06
	5.375144240932480e-04
	9.029242765233953e-05
	2.023295182860347e-01

 88	8.800000000000006e-01
	-5.907317159758893e-15
	-4.620087553983583e-18
	-3.382417352652705e-14
	3.336993355609538e-06
	5.611590503111001e-04
	9.578446281624693e-05
	2.023301763129370e-01

 89	8.900000000000006e-01
	-5.912939276945850e-15
	-4.714858072731822e-18
	-3.389291360540370e-14
	3.464295008361904e-06
	5.851698900630046e-04
	1.015147094032627e-04
	2.023308646967249e-01

 90	9.000000000000006e-01
	-5.919165034018144e-15
	-4.811470513542884e-18
	-3.395974927193635e-14
	3.594816932667891e-06
	6.095153970319879e-04
	1.074866667470340e-04
	2.023315838466896e-01

 91	9.100000000000006e-01
	-5.925977145001354e-15
	-4.909961829565658e-18
	-3.402471373908470e-14
	3.728585087392498e-06
	6.341633233883223e-04
	1.137035149179469e-04
	2.023323341188302e-01

 92	9.200000000000006e-01
	-5.933358642067372e-15
	-5.010369827786164e-18
	-3.408784008920179e-14
	3.865626073978411e-06
	6.590809350031589e-04
	1.201681087986626e-04
	2.023331158153971e-01

 93	9.300000000000006e-01
	-5.941292877750426e-15
	-5.112733191616134e-18
	-3.414916124923979e-14
	4.005967430261001e-06
	6.842352269742734e-04
	1.268829743158820e-04
	2.023339291849231e-01

 94	9.400000000000006e-01
	-5.949763526631917e-15
	-5.217091504125464e-18
	-3.420870996733838e-14
	4.149637939726569e-06
	7.095931369370093e-04
	1.338503068185474e-04
	2.023347744226905e-01

 95	9.500000000000006e-01
	-5.958754586519709e-15
	-5.323485271940349e-18
	-3.426651879076413e-14
	4.296667955513859e-06
	7.351217537440406e-04
	1.410719715679355e-04
	2.023356516716351e-01

 96	9.600000000000006e-01
	-5.968250379146757e-15
	-5.431955949827889e-18
	-3.432262004516783e-14
	4.447089738505499e-06
	7.607885192479932e-04
	1.485495062816522e-04
	2.023365610236767e-01

 97	9.700000000000006e-01
	-5.978235550413364e-15
	-5.542545965990513e-18
	-3.437704581512629e-14
	4.600937808927326e-06
	7.865614211063701e-04
	1.562841256517926e-04
	2.023375025214180e-01

 98	9.800000000000006e-01
	-5.988695070197535e-15
	-5.655298748093660e-18
	-3.442982792593317e-14
	4.758249310969094e-06
	8.124091747426264e-04
	1.642767277377835e-04
	2.023384761601990e-01

 99	9.900000000000007e-01
	-5.999614231756529e-15
	-5.770258750050210e-18
	-3.448099792660391e-14
	4.919064390058797e-06
	8.383013928346457e-04
	1.725279021169459e-04
	2.023394818904508e-01

 100	1.000000000000001e+00
	-6.010978650743647e-15
	-5.887471479588669e-18
	-3.453058707405728e-14
	5.083426582563971e-06
	8.642087409557209e-04
	1.810379396607924e-04
	2.023405196203445e-01

 101	1.010000000000001e+00
	-6.022774263861504e-15
	-6.006983526629122e-18
	-3.457862631843826e-14
	5.251383217856509e-06
	8.901030782573656e-04
	1.898068437926909e-04
	2.023415892186240e-01

 102	1.020000000000001e+00
	-6.034987327175181e-15
	-6.128842592495853e-18
	-3.462514628954329e-14
	5.422985832859325e-06
	9.159575823509679e-04
	1.988343430727344e-04
	2.023426905176563e-01

 103	1.030000000000001e+00
	-6.047604414105659e-15
	-6.253097519994234e-18
	-3.467017728431180e-14
	5.598290599395024e-06
	9.417468578114149e-04
	2.081199049486120e-04
	2.023438233166001e-01

 104	1.040000000000001e+00
	-6.060612413124782e-15
	-6.379798324380663e-18
	-3.471374925534598e-14
	5.777358764875995e-06
	9.674470279842795e-04
	2.176627505068298e-04
	2.023449873846713e-01

 105	1.050000000000001e+00
	-6.073998525171778e-15
	-6.508996225256320e-18
	-3.475589180042098e-14
	5.960257107110351e-06
	9.930358100245077e-04
	2.274618700566967e-04
	2.023461824644500e-01

 106	1.060000000000001e+00
	-6.087750260811069e-15
	-6.640743679415381e-18
	-3.479663415294839e-14
	6.147058404249857e-06
	1.018492573324547e-03
	2.375160393799654e-04
	2.023474082752171e-01

 107	1.070000000000001e+00
	-6.101855437149790e-15
	-6.775094414680830e-18
	-3.483600517335579e-14
	6.337841921172516e-06
	1.043798381700432e-03
	2.478238364817047e-04
	2.023486645162375e-01

 108	1.080000000000001e+00
	-6.116302174533721e-15
	-6.912103464760893e-18
	-3.487403334134542e-14
	6.532693913873470e-06
	1.068936019892346e-03
	2.583836586826182e-04
	2.023499508699967e-01

 109	1.090000000000001e+00
	-6.131078893039066e-15
	-7.051827205159954e-18
	-3.491074674899479e-14
	6.731708153734346e-06
	1.093890005100456e-03
	2.691937398994656e-04
	2.023512670053444e-01

 110	1.100000000000001e+00
	-6.146174308776673e-15
	-7.194323390182210e-18
	-3.494617309466427e-14
	6.934986473852854e-06
	1.118646584415814e-03
	2.802521679681900e-04
	2.023526125805083e-01

 111	1.110000000000001e+00
	-6.161577430025456e-15
	-7.339651191062264e-18
	-3.498033967767502e-14
	7.142639339942980e-06
	1.143193719119611e-03
	2.915569018735539e-04
	2.023539872459669e-01

 112	1.120000000000001e+00
	-6.177277553210107e-15
	-7.487871235261708e-18
	-3.501327339372295e-14
	7.354786448661198e-06
	1.167521056912177e-03
	3.031057887592708e-04
	2.023553906471588e-01

 113	1.130000000000001e+00
	-6.193264258738667e-15
	-7.639045646975315e-18
	-3.504500073099370e-14
	7.571557356581303e-06
	1.191619893196879e-03
	3.148965806036272e-04
	2.023568224270171e-01

 114	1.140000000000001e+00
	-6.209527406713474e-15
	-7.793238088880734e-18
	-3.507554776694602e-14
	7.793092143427972e-06
	1.215483122584347e-03
	3.269269504570312e-04
	2.023582822283044e-01

 115	1.150000000000001e+00
	-6.226057132529994e-15
	-7.950513805181090e-18
	-3.510494016572928e-14
	8.019542113593488e-06
	1.239105181801111e-03
	3.391945081497151e-04
	2.023597696957539e-01

 116	1.160000000000001e+00
	-6.242843842375922e-15
	-8.110939665979638e-18
	-3.513320317620437e-14
	8.251070540405839e-06
	1.262481985185638e-03
	3.516968153896840e-04
	2.023612844780025e-01

 117	1.170000000000001e+00
	-6.259878208643555e-15
	-8.274584213036783e-18
	-3.516036163053545e-14
	8.487853458092588e-06
	1.285610853935820e-03
	3.644314001827034e-04
	2.023628262293261e-01

 118	1.180000000000001e+00
	-6.277151165266721e-15
	-8.441517706951224e-18
	-3.518643994332292e-14
	8.730080506903540e-06
	1.308490440237904e-03
	3.773957705176979e-04
	2.023643946111558e-01

 119	1.190000000000001e+00
	-6.294653902994051e-15
	-8.611812175819264e-18
	-3.521146211124755e-14
	8.977955837414308e-06
	1.331120647359075e-03
	3.905874272718749e-04
	2.023659892934150e-01

 120	1.200000000000001e+00
	-6.312377864608883e-15
	-8.785541465419281e-18
	-3.523545171319721e-14
	9.231699080649457e-06
	1.353502546727957e-03
	4.040038763005579e-04
	2.023676099556410e-01

 121	1.210000000000001e+00
	-6.330314740106193e-15
	-8.962781290977215e-18
	-3.525843191084780e-14
	9.491546391335596e-06
	1.375638292959856e-03
	4.176426396865085e-04
	2.023692562879378e-01

 122	1.220000000000001e+00
	-6.348456461835676e-15
	-9.143609290563769e-18
	-3.528042544967261e-14
	9.757751572339325e-06
	1.397531037710311e-03
	4.315012661328037e-04
	2.023709279917345e-01

 123	1.230000000000001e+00
	-6.366795199620664e-15
	-9.328105080183894e-18
	-3.530145466035234e-14
	1.003058728916537e-05
	1.419184843161943e-03
	4.455773404917028e-04
	2.023726247803934e-01

 124	1.240000000000001e+00
	-6.385323355860766e-15
	-9.516350310612371e-18
	-3.532154146056222e-14
	1.031034638430427e-05
	1.440604595868775e-03
	4.598684924296419e-04
	2.023743463796580e-01

 125	1.250000000000001e+00
	-6.404033560626484e-15
	-9.708428726042240e-18
	-3.534070735711076e-14
	1.059734330223417e-05
	1.461795921599708e-03
	4.743724042352761e-04
	2.023760925279506e-01

 126	1.260000000000001e+00
	-6.422918666753250e-15
	-9.904426224603434e-18
	-3.535897344840765e-14
	1.089191563701561e-05
	1.482765101740651e-03
	4.890868177834948e-04
	2.023778629765516e-01

 127	1.270000000000001e+00
	-6.441971744942186e-15
	-1.010443092081935e-17
	-3.537636042723735e-14
	1.119442581568774e-05
	1.503518991733976e-03
	5.040095406735152e-04
	2.023796574896639e-01

 128	1.280000000000001e+00
	-6.461186078873468e-15
	-1.030853321007081e-17
	-3.539288858381791e-14
	1.150526293209813e-05
	1.524064941955622e-03
	5.191384515635749e-04
	2.023814758443590e-01

 129	1.290000000000001e+00
	-6.480555160339143e-15
	-1.051682583513368e-17
	-3.540857780912327e-14
	1.182484474739550e-05
	1.544410721354547e-03
	5.344715047283064e-04
	2.023833178304421e-01

 130	1.300000000000001e+00
	-6.500072684400673e-15
	-1.072940395486861e-17
	-3.542344759844971e-14
	1.215361987521344e-05
	1.564564444107816e-03
	5.500067338677878e-04
	2.023851832502389e-01

 131	1.310000000000001e+00
	-6.519732544576669e-15
	-1.094636521513152e-17
	-3.543751705520730e-14
	1.249207017159888e-05
	1.584534499477162e-03
	5.657422551994355e-04
	2.023870719183173e-01

 132	1.320000000000001e+00
	-6.539528828065436e-15
	-1.116780982199268e-17
	-3.545080489491798e-14
	1.284071335202426e-05
	1.604329484990054e-03
	5.816762698654827e-04
	2.023889836611404e-01

 133	1.330000000000001e+00
	-6.559455811007042e-15
	-1.139384061733693e-17
	-3.546332944940320e-14
	1.320010586040105e-05
	1.623958143009780e-03
	5.978070656896310e-04
	2.023909183166831e-01

 134	1.340000000000001e+00
	-6.579507953789111e-15
	-1.162456315693649e-17
	-3.547510867114419e-14
	1.357084601793047e-05
	1.643429300705619e-03
	6.141330183169052e-04
	2.023928757340138e-01

 135	1.350000000000001e+00
	-6.599679896399730e-15
	-1.186008579108144e-17
	-3.548616013779914e-14
	1.395357748292740e-05
	1.662751813385027e-03
	6.306525917705640e-04
	2.023948557728406e-01

 136	1.360000000000001e+00
	-6.619966453831591e-15
	-1.210051974785953e-17
	-3.549650105686202e-14
	1.434899305649264e-05
	1.681934511104927e-03
	6.473643384593141e-04
	2.023968583030498e-01

 137	1.370000000000001e+00
	-6.640362611539326e-15
	-1.234597921918207e-17
	-3.550614827044962e-14
	1.475783887314902e-05
	1.700986148438782e-03
	6.642668986670756e-04
	2.023988832042048e-01

 138	1.380000000000001e+00
	-6.660863520954411e-15
	-1.259658144965191e-17
	-3.551511826020124e-14
	1.518091902036440e-05
	1.719915357238683e-03
	6.813589995560064e-04
	2.024009303650655e-01

 139	1.390000000000001e+00
	-6.681464495058709e-15
	-1.285244682837942e-17
	-3.552342715228040e-14
	1.561910063635290e-05
	1.738730602198592e-03
	6.986394537118683e-04
	2.024029996830904e-01

 140	1.400000000000001e+00
	-6.702161004019696e-15
	-1.311369898384908e-17
	-3.553109072246466e-14
	1.607331954175329e-05
	1.757440138993815e-03
	7.161071572586247e-04
	2.024050910639340e-01

 141	1.410000000000001e+00
	-6.722948670889106e-15
	-1.338046488195289e-17
	-3.553812440131235e-14
	1.654458646785009e-05
	1.776051974743357e-03
	7.337610875667913e-04
	2.024072044209479e-01

 142	1.420000000000001e+00
	-6.743823267366939e-15
	-1.365287492729803e-17
	-3.554454327939554e-14
	1.703399395204374e-05
	1.794573830515125e-03
	7.516003005773616e-04
	2.024093396747020e-01

 143	1.430000000000001e+00
	-6.764780709631627e-15
	-1.393106306791654e-17
	-3.555036211258875e-14
	1.754272398044291e-05
	1.813013105568919e-03
	7.696239277603257e-04
	2.024114967524790e-01

 144	1.440000000000001e+00
	-6.785817054238659e-15
	-1.421516690349549e-17
	-3.555559532740312e-14
	1.807205646788892e-05
	1.831376843006771e-03
	7.878311727234454e-04
	2.024136755877968e-01

 145	1.450000000000001e+00
	-6.806928494087613e-15
	-1.450532779725911e-17
	-3.556025702635757e-14
	1.862337867763720e-05
	1.849671696475879e-03
	8.062213074836735e-04
	2.024158761199227e-01

 146	1.460000000000001e+00
	-6.828111354459464e-15
	-1.480169099163611e-17
	-3.556436099337768e-14
	1.919819569650617e-05
	1.867903897543585e-03
	8.247936684098660e-04
	2.024180982933960e-01

 147	1.470000000000001e+00
	-6.849362089123737e-15
	-1.510440572785342e-17
	-3.556792069921423e-14
	1.979814209681544e-05
	1.886079223337158e-03
	8.435476518415773e-04
	2.024203420575257e-01

 148	1.480000000000001e+00
	-6.870677276516874e-15
	-1.541362536959912e-17
	-3.557094930687438e-14
	2.042499493413179e-05
	1.904202964011585e-03
	8.624827093843603e-04
	2.024226073659070e-01

 149	1.490000000000001e+00
	-6.892053615991478e-15
	-1.572950753090586e-17
	-3.557345967705736e-14
	2.108068825005658e-05
	1.922279889577011e-03
	8.815983428776897e-04
	2.024248941759068e-01

 150	1.500000000000001e+00
	-6.913487924137136e-15
	-1.605221420841262e-17
	-3.557546437358826e-14
	2.176732927234589e-05
	1.940314215581110e-03
	9.008940990266054e-04
	2.024272024481418e-01

 151	1.510000000000001e+00
	-6.934977131171970e-15
	-1.638191191816688e-17
	-3.557697566884455e-14
	2.248721653096979e-05
	1.958309567101299e-03
	9.203695636830428e-04
	2.024295321459249e-01

 152	1.520000000000001e+00
	-6.956518277405542e-15
	-1.671877183713506e-17
	-3.557800554916817e-14
	2.324286013870964e-05
	1.976268940455155e-03
	9.400243557570890e-04
	2.024318832346828e-01

 153	1.530000000000001e+00
	-6.978108509772417e-15
	-1.706296994959750e-17
	-3.557856572025869e-14