Title: ** sch_path: /home/andylithia/openmpw/project-yatsuhashi-chip1/xschem/gmid_test/nmos_test.sch
Date: Tue Jul 19 23:15:45  2022
Plotname: DC transfer characteristic
Flags: real
No. Variables: 8
No. Points: 181
Variables:
	0	v(v-sweep)	voltage
	1	@m.xm1.msky130_fd_pr__nfet_01v8[cgb]	capacitance
	2	@m.xm1.msky130_fd_pr__nfet_01v8[cgd]	capacitance
	3	@m.xm1.msky130_fd_pr__nfet_01v8[cgs]	capacitance
	4	@m.xm1.msky130_fd_pr__nfet_01v8[gds]	admittance
	5	@m.xm1.msky130_fd_pr__nfet_01v8[gm]	admittance
	6	i(@m.xm1.msky130_fd_pr__nfet_01v8[id])	current
	7	v(@m.xm1.msky130_fd_pr__nfet_01v8[vth])	voltage
Values:
 0	0.000000000000000e+00
	-5.306895281444482e-15
	-6.720033697107270e-20
	-6.608628340400893e-15
	3.596924641104748e-08
	1.540865000886418e-06
	1.652567047312928e-07
	3.076536553943850e-01

 1	1.000000000000000e-02
	-5.249297994754243e-15
	-7.119529702447488e-20
	-6.737139137333331e-15
	3.942998008694745e-08
	1.688699567627690e-06
	1.813934315374427e-07
	3.076536566539442e-01

 2	2.000000000000000e-02
	-5.192136700433686e-15
	-7.534879407944897e-20
	-6.866276634028089e-15
	4.321235868130969e-08
	1.850448384778311e-06
	1.990770420557211e-07
	3.076536580346241e-01

 3	3.000000000000000e-02
	-5.135429846703878e-15
	-7.966438983026556e-20
	-6.995983148617338e-15
	4.734470816862362e-08
	2.027406482379632e-06
	2.184530562789252e-07
	3.076536595478921e-01

 4	4.000000000000000e-02
	-5.079195862841834e-15
	-8.414563956256752e-20
	-7.126200101240326e-15
	5.185763963390868e-08
	2.220991409180284e-06
	2.396805472070826e-07
	3.076536612063019e-01

 5	5.000000000000000e-02
	-5.023453114311546e-15
	-8.879609013125332e-20
	-7.256868111261947e-15
	5.678420681035065e-08
	2.432755660620320e-06
	2.629334270478009e-07
	3.076536630235889e-01

 6	6.000000000000000e-02
	-4.968219858180147e-15
	-9.361927806612990e-20
	-7.387927097066051e-15
	6.216007119452448e-08
	2.664400521942134e-06
	2.884018646319198e-07
	3.076536650147972e-01

 7	7.000000000000001e-02
	-4.913514198969318e-15
	-9.861872781549901e-20
	-7.519316378092991e-15
	6.802367470810159e-08
	2.917791500503220e-06
	3.162938490497309e-07
	3.076536671964006e-01

 8	8.000000000000000e-02
	-4.859354045091299e-15
	-1.037979501371385e-19
	-7.650974778777539e-15
	7.441641981815398e-08
	3.194975541140038e-06
	3.468369163511914e-07
	3.076536695864487e-01

 9	9.000000000000000e-02
	-4.805757066017457e-15
	-1.091604406454956e-19
	-7.782840734033115e-15
	8.138285696534156e-08
	3.498200239600531e-06
	3.802800581967196e-07
	3.076536722047287e-01

 10	9.999999999999999e-02
	-4.752740650325016e-15
	-1.147096785236757e-19
	-7.914852395918924e-15
	8.897087908020524e-08
	3.829935291491112e-06
	4.168958336063161e-07
	3.076536750729350e-01

 11	1.100000000000000e-01
	-4.700321864764163e-15
	-1.204491254075401e-19
	-8.046947741119788e-15
	9.723192289247766e-08
	4.192896437669740e-06
	4.569827074455839e-07
	3.076536782148696e-01

 12	1.200000000000000e-01
	-4.648517414483719e-15
	-1.263822244489851e-19
	-8.179064678864041e-15
	1.062211766568146e-07
	4.590072191273117e-06
	5.008676420171441e-07
	3.076536816566602e-01

 13	1.300000000000000e-01
	-4.597343604548578e-15
	-1.325123995644974e-19
	-8.311141158901746e-15
	1.159977938306835e-07
	5.024753656203029e-06
	5.489089711005519e-07
	3.076536854269990e-01

 14	1.400000000000000e-01
	-4.546816302876232e-15
	-1.388430548742534e-19
	-8.443115279165477e-15
	1.266251121464909e-07
	5.500567771409475e-06
	6.014995890044966e-07
	3.076536895574200e-01

 15	1.500000000000000e-01
	-4.496950904713336e-15
	-1.453775743363244e-19
	-8.574925392737461e-15
	1.381708774206846e-07
	6.021514339063076e-06
	6.590704906578690e-07
	3.076536940825961e-01

 16	1.600000000000000e-01
	-4.447762298765879e-15
	-1.521193215795854e-19
	-8.706510213750876e-15
	1.507074713377241e-07
	6.592007216914927e-06
	7.220947024591421e-07
	3.076536990406786e-01

 17	1.700000000000000e-01
	-4.399264835088593e-15
	-1.590716399381891e-19
	-8.837808921859188e-15
	1.643121423369676e-07
	7.216920074853961e-06
	7.910916475069593e-07
	3.076537044736756e-01

 18	1.800000000000000e-01
	-4.351472294830833e-15
	-1.662378526894145e-19
	-8.968761264915728e-15
	1.790672386161292e-07
	7.901637131757297e-06
	8.666319929181371e-07
	3.076537104278678e-01

 19	1.900000000000000e-01
	-4.304397861926928e-15
	-1.736212634960149e-19
	-9.099307659515783e-15
	1.950604421464541e-07
	8.652109299863844e-06
	9.493430311593881e-07
	3.076537169542836e-01

 20	2.000000000000000e-01
	-4.258054096809598e-15
	-1.812251570532380e-19
	-9.229389289066052e-15
	2.123850024729961e-07
	9.474916168567158e-06
	1.039914651619869e-06
	3.076537241092168e-01

 21	2.100000000000000e-01
	-4.212452912215057e-15
	-1.890527999397203e-19
	-9.358948199059849e-15
	2.311399689487720e-07
	1.037733425597769e-05
	1.139105962958596e-06
	3.076537319548224e-01

 22	2.200000000000001e-01
	-4.167605551138082e-15
	-1.971074416709482e-19
	-9.487927389253250e-15
	2.514304199252516e-07
	1.136741194291907e-05
	1.247752630983916e-06
	3.076537405597548e-01

 23	2.300000000000001e-01
	-4.123522566984968e-15
	-2.053923159527056e-19
	-9.616270902453708e-15
	2.733676872940662e-07
	1.245405147803756e-05
	1.366775000847203e-06
	3.076537499999037e-01

 24	2.400000000000001e-01
	-4.080213805961634e-15
	-2.139106421315301e-19
	-9.743923909652349e-15
	2.970695746473588e-07
	1.364709840210834e-05
	1.497187076027835e-06
	3.076537603592120e-01

 25	2.500000000000001e-01
	-4.037688391723064e-15
	-2.226656268382959e-19
	-9.870832791252004e-15
	3.226605671976797e-07
	1.495743868191694e-05
	1.640106429791222e-06
	3.076537717305529e-01

 26	2.600000000000001e-01
	-3.995954712300249e-15
	-2.316604658202788e-19
	-9.996945214162397e-15
	3.502720314735550e-07
	1.639710376665712e-05
	1.796765127330688e-06
	3.076537842167552e-01

 27	2.700000000000001e-01
	-3.955020409309185e-15
	-2.408983459564300e-19
	-1.012221020455927e-14
	3.800424026859227e-07
	1.797938367997345e-05
	1.968521738451436e-06
	3.076537979316994e-01

 28	2.800000000000001e-01
	-3.914892369436850e-15
	-2.503824474501448e-19
	-1.024657821612492e-14
	4.121173575436702e-07
	1.971894813585895e-05
	2.156874521176462e-06
	3.076538130015500e-01

 29	2.900000000000001e-01
	-3.875576718188172e-15
	-2.601159461928881e-19
	-1.037000119361293e-14
	4.466499701858973e-07
	2.163197551404560e-05
	2.363475855792006e-06
	3.076538295661173e-01

 30	3.000000000000001e-01
	-3.837078815868380e-15
	-2.701020162918722e-19
	-1.049243263160394e-14
	4.838008487953100e-07
	2.373628934787701e-05
	2.590148006311577e-06
	3.076538477803477e-01

 31	3.100000000000001e-01
	-3.799403255765322e-15
	-2.803438327544011e-19
	-1.061382762834331e-14
	5.237382503628918e-07
	2.605150176285057e-05
	2.838900281811320e-06
	3.076538678159846e-01

 32	3.200000000000001e-01
	-3.762553864487191e-15
	-2.908445743209636e-19
	-1.073414293457717e-14
	5.666381709909725e-07
	2.859916305547799e-05
	3.111947663247969e-06
	3.076538898633761e-01

 33	3.300000000000001e-01
	-3.726533704402364e-15
	-3.016074264393132e-19
	-1.085333699732712e-14
	6.126844090511997e-07
	3.140291631883608e-05
	3.411730951866585e-06
	3.076539141334494e-01

 34	3.400000000000001e-01
	-3.691345078120001e-15
	-3.126355843706827e-19
	-1.097136999856813e-14
	6.620685984583722e-07
	3.448865570305781e-05
	3.740938482793214e-06
	3.076539408598888e-01

 35	3.500000000000001e-01
	-3.656989534942139e-15
	-3.239322564200817e-19
	-1.108820388879889e-14
	7.149902092826509e-07
	3.788468654693509e-05
	4.102529431541707e-06
	3.076539703014890e-01

 36	3.600000000000002e-01
	-3.623467879211355e-15
	-3.355006672816706e-19
	-1.120380241551602e-14
	7.716565129035284e-07
	4.162188523290507e-05
	4.499758721612295e-06
	3.076540027447078e-01

 37	3.700000000000002e-01
	-3.590780180471545e-15
	-3.473440614906203e-19
	-1.131813114662668e-14
	8.322825089117602e-07
	4.573385620560760e-05
	4.936203517822461e-06
	3.076540385064324e-01

 38	3.800000000000002e-01
	-3.558925785353681e-15
	-3.594657069725976e-19
	-1.143115748885566e-14
	8.970908109930255e-07
	5.025708315924296e-05
	5.415791262230750e-06
	3.076540779369576e-01

 39	3.900000000000002e-01
	-3.527903331093401e-15
	-3.718688986822577e-19
	-1.154285070122368e-14
	9.663114890821711e-07
	5.523107094835045e-05
	5.942829177298197e-06
	3.076541214231680e-01

 40	4.000000000000002e-01
	-3.497710760583160e-15
	-3.845569623220770e-19
	-1.165318190369279e-14
	1.040181865161905e-06
	6.069847431963098e-05
	6.522035124163933e-06
	3.076541693919440e-01

 41	4.100000000000002e-01
	-3.468345338857825e-15
	-3.975332581332198e-19
	-1.176212408109371e-14
	1.118946260198859e-06
	6.670520911062536e-05
	7.158569662591601e-06
	3.076542223137684e-01

 42	4.200000000000002e-01
	-3.439803670909829e-15
	-4.108011847500021e-19
	-1.186965208246614e-14
	1.202855689864722e-06
	7.330054112816053e-05
	7.858069113380956e-06
	3.076542807065368e-01

 43	4.300000000000002e-01
	-3.412081720727895e-15
	-4.243641831102949e-19
	-1.197574261595959e-14
	1.292167506884747e-06
	8.053714752165984e-05
	8.626679374111904e-06
	3.076543451395542e-01

 44	4.400000000000002e-01
	-3.385174831451622e-15
	-4.382257404139689e-19
	-1.208037423945560e-14
	1.387144988092516e-06
	8.847114512190446e-05
	9.471090185430710e-06
	3.076544162376925e-01

 45	4.500000000000002e-01
	-3.359077746533513e-15
	-4.523893941223035e-19
	-1.218352734708578e-14
	1.488056864551599e-06
	9.716207994494718e-05
	1.039856948833998e-05
	3.076544946856931e-01

 46	4.600000000000002e-01
	-3.333784631799881e-15
	-4.668587359913350e-19
	-1.228518415183049e-14
	1.595176793433436e-06
	1.066728718854282e-04
	1.141699745395504e-05
	3.076545812325804e-01

 47	4.700000000000003e-01
	-3.309289098302183e-15
	-4.816374161327712e-19
	-1.238532866439395e-14
	1.708782770719481e-06
	1.170697085665938e-04
	1.253489970702021e-05
	3.076546766961243e-01

 48	4.800000000000003e-01
	-3.285584225851678e-15
	-4.967291470962966e-19
	-1.248394666855830e-14
	1.829156484224074e-06
	1.284218823991522e-04
	1.376147920442815e-05
	3.076547819673314e-01

 49	4.900000000000003e-01
	-3.262662587131686e-15
	-5.121377079679935e-19
	-1.258102569322709e-14
	1.956582606915328e-06
	1.408015651508507e-04
	1.510664617160801e-05
	3.076548980148855e-01

 50	5.000000000000002e-01
	-3.240516272283624e-15
	-5.278669484794851e-19
	-1.267655498137338e-14
	2.091348031042938e-06
	1.542835147647847e-04
	1.658104544469166e-05
	3.076550258894769e-01

 51	5.100000000000002e-01
	-3.219136913865737e-15
	-5.439207931234950e-19
	-1.277052545611183e-14
	2.233741044163827e-06
	1.689447098059975e-04
	1.819608051680438e-05
	3.076551667279283e-01

 52	5.200000000000002e-01
	-3.198515712086443e-15
	-5.603032452716074e-19
	-1.286292968411574e-14
	2.384050448785955e-06
	1.848639077779400e-04
	1.996393354478453e-05
	3.076553217570622e-01

 53	5.300000000000002e-01
	-3.178643460217120e-15
	-5.770183912909054e-19
	-1.295376183660250e-14
	2.542564628025575e-06
	2.021211246429036e-04
	2.189758054040187e-05
	3.076554922971655e-01

 54	5.400000000000003e-01
	-3.159510570093446e-15
	-5.940704046561060e-19
	-1.304301764810931e-14
	2.709570560385317e-06
	2.207970342065578e-04
	2.401080095000585e-05
	3.076556797649921e-01

 55	5.500000000000003e-01
	-3.141107097617813e-15
	-6.114635500551585e-19
	-1.313069437328064e-14
	2.885352787507371e-06
	2.409722875819239e-04
	2.631818082086902e-05
	3.076558856761475e-01

 56	5.600000000000003e-01
	-3.123422768180096e-15
	-6.292021874857307e-19
	-1.321679074188554e-14
	3.070192339524761e-06
	2.627267547181730e-04
	2.883510876347015e-05
	3.076561116467850e-01

 57	5.700000000000003e-01
	-3.106447001917938e-15
	-6.472907763414282e-19
	-1.330130691228035e-14
	3.264365623418703e-06
	2.861386919408736e-04
	3.157776394868223e-05
	3.076563593944623e-01

 58	5.800000000000003e-01
	-3.090168938742892e-15
	-6.657338794866541e-19
	-1.338424442352677e-14
	3.468143280576210e-06
	3.112838415675014e-04
	3.456309542899863e-05
	3.076566307380175e-01

 59	5.900000000000003e-01
	-3.074577463063129e-15
	-6.845361673189108e-19
	-1.346560614637029e-14
	3.681789020516685e-06
	3.382344718890369e-04
	3.780879214487854e-05
	3.076569275964208e-01

 60	6.000000000000003e-01
	-3.059661228138315e-15
	-7.037024218191702e-19
	-1.354539623327819e-14
	3.905558438507746e-06
	3.670583680887916e-04
	4.133324307190174e-05
	3.076572519863942e-01

 61	6.100000000000003e-01
	-3.045408680007330e-15
	-7.232375405894956e-19
	-1.362362006772854e-14
	4.139697825496859e-06
	3.978177869354375e-04
	4.515548708178831e-05
	3.076576060187695e-01

 62	6.200000000000003e-01
	-3.031808080934198e-15
	-7.431465408790372e-19
	-1.370028421293495e-14
	4.384442979435751e-06
	4.305683902636898e-04
	4.929515223003726e-05
	3.076579918934684e-01

 63	6.300000000000003e-01
	-3.018847532322489e-15
	-7.634345635988361e-19
	-1.377539636018363e-14
	4.640018027647735e-06
	4.653581742607606e-04
	5.377238434360096e-05
	3.076584118930195e-01

 64	6.400000000000003e-01
	-3.006514997053528e-15
	-7.841068773265161e-19
	-1.384896527695070e-14
	4.906634270367042e-06
	5.022264133238951e-04
	5.860776496148082e-05
	3.076588683745986e-01

 65	6.500000000000004e-01
	-2.994798321208198e-15
	-8.051688823022052e-19
	-1.392100075495944e-14
	5.184489055949033e-06
	5.412026386584132e-04
	6.382221887642809e-05
	3.076593637605435e-01

 66	6.600000000000004e-01
	-2.983685255136980e-15
	-8.266261144172079e-19
	-1.399151355832813e-14
	5.473764698491803e-06
	5.823056727640689e-04
	6.943691173314622e-05
	3.076599005273530e-01

 67	6.700000000000004e-01
	-2.973163473847307e-15
	-8.484842491970064e-19
	-1.406051537195031e-14
	5.774627448710623e-06
	6.255427414358480e-04
	7.547313835288729e-05
	3.076604811932163e-01

 68	6.800000000000004e-01
	-2.963220596681944e-15
	-8.707491057804851e-19
	-1.412801875023963e-14
	6.087226528854525e-06
	6.709086848211852e-04
	8.195220267077983e-05
	3.076611083041537e-01

 69	6.900000000000004e-01
	-2.953844206265895e-15
	-8.934266508976259e-19
	-1.419403706636351e-14
	6.411693242239337e-06
	7.183852883826689e-04
	8.889529038472113e-05
	3.076617844188592e-01

 70	7.000000000000004e-01
	-2.945021866703907e-15
	-9.165230028472198e-19
	-1.425858446207989e-14
	6.748140167587237e-06
	7.679407532873212e-04
	9.632333561695317e-05
	3.076625120924062e-01

 71	7.100000000000004e-01
	-2.936741141014189e-15
	-9.400444354778458e-19
	-1.432167579828292e-14
	7.096660447808195e-06
	8.195293237774730e-04
	1.042568830751527e-04
	3.076632938589831e-01

 72	7.200000000000004e-01
	-2.928989607787823e-15
	-9.639973821735247e-19
	-1.438332660635500e-14
	7.457327182133931e-06
	8.730910864957964e-04
	1.127159473626703e-04
	3.076641322138802e-01

 73	7.300000000000004e-01
	-2.921754877066717e-15
	-9.883884398473797e-19
	-1.444355304041376e-14
	7.830192929626144e-06
	9.285519535864180e-04
	1.217198712215125e-04
	3.076650295949705e-01

 74	7.400000000000004e-01
	-2.915024605436392e-15
	-1.013224372945887e-18
	-1.450237183053468e-14
	8.215289331040343e-06
	9.858238377492921e-04
	1.312871845914980e-04
	3.076659883639201e-01

 75	7.500000000000004e-01
	-2.908786510332823e-15
	-1.038512117466283e-18
	-1.455980023702196e-14
	8.612626854843569e-06
	1.044805023383577e-03
	1.414354664301551e-04
	3.076670107874506e-01

 76	7.600000000000005e-01
	-2.903028383565537e-15
	-1.064258784991035e-18
	-1.461585600579281e-14
	9.022194671883136e-06
	1.105380733637135e-03
	1.521812112571543e-04
	3.076680990189066e-01

 77	7.700000000000005e-01
	-2.897738104061866e-15
	-1.090471666741833e-18
	-1.467055732493271e-14
	9.443960661800579e-06
	1.167423888718041e-03
	1.635397023621552e-04
	3.076692550804487e-01

 78	7.800000000000005e-01
	-2.892903649839461e-15
	-1.117158237657679e-18
	-1.472392278247244e-14
	9.877871552807274e-06
	1.230796046366555e-03
	1.755248935453185e-04
	3.076704808461355e-01

 79	7.900000000000005e-01
	-2.888513109216944e-15
	-1.144326160500394e-18
	-1.477597132543074e-14
	1.032385319491085e-05
	1.295348511082356e-03
	1.881493011461411e-04
	3.076717780262063e-01

 80	8.000000000000005e-01
	-2.884554691274040e-15
	-1.171983289992175e-18
	-1.482672222015993e-14
	1.078181096513463e-05
	1.360923594700268e-03
	2.014239079611140e-04
	3.076731481527869e-01

 81	8.100000000000005e-01
	-2.881016735574834e-15
	-1.200137676989467e-18
	-1.487619501402595e-14
	1.125163030173074e-05
	1.427356007345949e-03
	2.153580804576148e-04
	3.076745925672728e-01

 82	8.200000000000005e-01
	-2.877887721169481e-15
	-1.228797572698477e-18
	-1.492440949844764e-14
	1.173317736288561e-05
	1.494474354804062e-03
	2.299595004656360e-04
	3.076761124095925e-01

 83	8.300000000000005e-01
	-2.875156274890788e-15
	-1.257971432937535e-18
	-1.497138567331557e-14
	1.222629980397606e-05
	1.562102715995217e-03
	2.452341122764657e-04
	3.076777086094759e-01

 84	8.400000000000005e-01
	-2.872811178963995e-15
	-1.287667922451722e-18
	-1.501714371280391e-14
	1.273082766608537e-05
	1.630062272658689e-03
	2.611860858053651e-04
	3.076793818799054e-01

 85	8.500000000000005e-01
	-2.870841377948919e-15
	-1.317895919286137e-18
	-1.506170393258490e-14
	1.324657436725639e-05
	1.698172962520198e-03
	2.778177961913559e-04
	3.076811327127776e-01

 86	8.600000000000005e-01
	-2.869235985034542e-15
	-1.348664519224130e-18
	-1.510508675844998e-14
	1.377333778685879e-05
	1.766255127200076e-03
	2.951298199191383e-04
	3.076829613768284e-01

 87	8.700000000000006e-01
	-2.867984287707412e-15
	-1.379983040296910e-18
	-1.514731269633684e-14
	1.431090143250583e-05
	1.834131126869734e-03
	3.131209472640472e-04
	3.076848679178083e-01

 88	8.800000000000006e-01
	-2.867075752815513e-15
	-1.411861027372021e-18
	-1.518840230375764e-14
	1.485903567817950e-05
	1.901626895144874e-03
	3.317882105881051e-04
	3.076868521608627e-01

 89	8.900000000000006e-01
	-2.866500031050026e-15
	-1.444308256827088e-18
	-1.522837616261942e-14
	1.541749906162931e-05
	1.968573409839301e-03
	3.511269277608252e-04
	3.076889137149961e-01

 90	9.000000000000006e-01
	-2.866246960867960e-15
	-1.477334741317560e-18
	-1.526725485342330e-14
	1.598603962869858e-05
	2.034808057896646e-03
	3.711307597482231e-04
	3.076910519795197e-01

 91	9.100000000000006e-01
	-2.866306571878750e-15
	-1.510950734644417e-18
	-1.530505893082634e-14
	1.656439631201119e-05
	2.100175875957518e-03
	3.917917812127894e-04
	3.076932661523258e-01

 92	9.200000000000006e-01
	-2.866669087718239e-15
	-1.545166736731269e-18
	-1.534180890054546e-14
	1.715230033141989e-05
	2.164530651483548e-03
	4.131005627996960e-04
	3.076955552397635e-01

 93	9.300000000000006e-01
	-2.867324928433674e-15
	-1.579993498717546e-18
	-1.537752519758077e-14
	1.774947660376044e-05
	2.227735873019016e-03
	4.350462636526140e-04
	3.076979180679696e-01

 94	9.400000000000006e-01
	-2.868264712403129e-15
	-1.615442028175812e-18
	-1.541222816573184e-14
	1.835564514978095e-05
	2.289665521901470e-03
	4.576167326079923e-04
	3.077003532953942e-01

 95	9.500000000000006e-01
	-2.869479257812842e-15
	-1.651523594461918e-18
	-1.544593803837877e-14
	1.897052248659248e-05
	2.350204701413042e-03
	4.807986164589408e-04
	3.077028594263115e-01

 96	9.600000000000006e-01
	-2.870959583715799e-15
	-1.688249734204738e-18
	-1.547867492049677e-14
	1.959382299461661e-05
	2.409250102888135e-03
	5.045774736584883e-04
	3.077054348250953e-01

 97	9.700000000000006e-01
	-2.872696910694460e-15
	-1.725632256944270e-18
	-1.551045877187178e-14
	2.022526024875805e-05
	2.466710311565935e-03
	5.289378918444082e-04
	3.077080777310147e-01

 98	9.800000000000006e-01
	-2.874682661150384e-15
	-1.763683250925415e-18
	-1.554130939148221e-14
	2.086454830439554e-05
	2.522505957922552e-03
	5.538636076113994e-04
	3.077107862733575e-01

 99	9.900000000000007e-01
	-2.876908459243073e-15
	-1.802415089054956e-18
	-1.557124640301096e-14
	2.151140292973575e-05
	2.576569722780088e-03
	5.793376270274702e-04
	3.077135584866623e-01

 100	1.000000000000001e+00
	-2.879366130499758e-15
	-1.841840435030161e-18
	-1.560028924145030e-14
	2.216554277709578e-05
	2.628846206630107e-03
	6.053423454858565e-04
	3.077163923258575e-01

 101	1.010000000000001e+00
	-2.882047701117579e-15
	-1.881972249645652e-18
	-1.562845714076158e-14
	2.282669048674242e-05
	2.679291675307146e-03
	6.318596655973155e-04
	3.077192856811674e-01

 102	1.020000000000001e+00
	-2.884945396978772e-15
	-1.922823797286332e-18
	-1.565576912255068e-14
	2.349457371801114e-05
	2.727873695402182e-03
	6.588711119559778e-04
	3.077222363925807e-01

 103	1.030000000000001e+00
	-2.888051642399173e-15
	-1.964408652614003e-18
	-1.568224398572007e-14
	2.416892610351780e-05
	2.774570673627524e-03
	6.863579417502638e-04
	3.077252422637948e-01

 104	1.040000000000001e+00
	-2.891359058629476e-15
	-2.006740707454520e-18
	-1.570790029705763e-14
	2.484948812335993e-05
	2.819371314760460e-03
	7.143012503350120e-04
	3.077283010754903e-01

 105	1.050000000000001e+00
	-2.894860462128205e-15
	-2.049834177893034e-18
	-1.573275638272278e-14
	2.553600789725238e-05
	2.862274012837386e-03
	7.426820710276452e-04
	3.077314105978512e-01

 106	1.060000000000001e+00
	-2.898548862624469e-15
	-2.093703611584350e-18
	-1.575683032059026e-14
	2.622824189354338e-05
	2.903286189986469e-03
	7.714814685365789e-04
	3.077345686022616e-01

 107	1.070000000000001e+00
	-2.902417460988224e-15
	-2.138363895285860e-18
	-1.578013993341232e-14
	2.692595555499999e-05
	2.942423596722855e-03
	8.006806255711796e-04
	3.077377728721118e-01

 108	1.080000000000001e+00
	-2.906459646924508e-15
	-2.183830262620107e-18
	-1.580270278276077e-14
	2.762892384212269e-05
	2.979709586735768e-03
	8.302609223167148e-04
	3.077410212126933e-01

 109	1.090000000000001e+00
	-2.910668996508085e-15
	-2.230118302074453e-18
	-1.582453616371030e-14
	2.833693169554028e-05
	3.015174378221798e-03
	8.602040085830162e-04
	3.077443114601459e-01

 110	1.100000000000001e+00
	-2.915039269573589e-15
	-2.277243965244976e-18
	-1.584565710022592e-14
	2.904977441974282e-05
	3.048854312711838e-03
	8.904918685503074e-04
	3.077476414894691e-01

 111	1.110000000000001e+00
	-2.919564406975936e-15
	-2.325223575332172e-18
	-1.586608234121763e-14
	2.976725799102870e-05
	3.080791121145805e-03
	9.211068781389681e-04
	3.077510092215840e-01

 112	1.120000000000001e+00
	-2.924238527734900e-15
	-2.374073835896285e-18
	-1.588582835722653e-14
	3.048919929306606e-05
	3.111031205710340e-03
	9.520318551208896e-04
	3.077544126294937e-01

 113	1.130000000000001e+00
	-2.929055926077135e-15
	-2.423811839879529e-18
	-1.590491133770745e-14
	3.121542628390822e-05
	3.139624944707441e-03
	9.832501021688417e-04
	3.077578497435396e-01

 114	1.140000000000001e+00
	-2.934011068388050e-15
	-2.474455078903748e-18
	-1.592334718887430e-14
	3.194577809864704e-05
	3.166626026495672e-03
	1.014745443106301e-03
	3.077613186558207e-01

 115	1.150000000000001e+00
	-2.939098590085567e-15
	-2.526021452851146e-18
	-1.594115153207521e-14
	3.268010509215392e-05
	3.192090817367770e-03
	1.046502252674521e-03
	3.077648175237921e-01

 116	1.160000000000001e+00
	-2.944313292426873e-15
	-2.578529279736225e-18
	-1.595833970266568e-14
	3.341826882653855e-05
	3.216077767117234e-03
	1.078505480176249e-03
	3.077683445731222e-01

 117	1.170000000000001e+00
	-2.949650139258618e-15
	-2.631997305878723e-18
	-1.597492674934932e-14
	3.416014200806636e-05
	3.238646855018711e-03
	1.110740667387702e-03
	3.077718980998293e-01

 118	1.180000000000001e+00
	-2.955104253720697e-15
	-2.686444716384913e-18
	-1.599092743395627e-14
	3.490560837831468e-05
	3.259859078011549e-03
	1.143193961152591e-03
	3.077754764717634e-01

 119	1.190000000000001e+00
	-2.960670914912718e-15
	-2.741891145947300e-18
	-1.600635623163120e-14
	3.565456256432608e-05
	3.279775982039817e-03
	1.175852121085416e-03
	3.077790781295114e-01

 120	1.200000000000001e+00
	-2.966345554532008e-15
	-2.798356689972104e-18
	-1.602122733140334e-14
	3.640690989244845e-05
	3.298459236768404e-03
	1.208702522817036e-03
	3.077827015867364e-01

 121	1.210000000000001e+00
	-2.972123753491265e-15
	-2.855861916044044e-18
	-1.603555463711262e-14
	3.716256617042386e-05
	3.315970253261562e-03
	1.241733157214114e-03
	3.077863454300513e-01

 122	1.220000000000001e+00
	-2.978001238523379e-15
	-2.914427875739003e-18
	-1.604935176866674e-14
	3.792145744213679e-05
	3.332369843676683e-03
	1.274932625997306e-03
	3.077900083184382e-01

 123	1.230000000000001e+00
	-2.983973878780757e-15
	-2.974076116793838e-18
	-1.606263206360492e-14
	3.868351971923164e-05
	3.347717921585162e-03
	1.308290134170915e-03
	3.077936889823169e-01

 124	1.240000000000001e+00
	-2.990037682435325e-15
	-3.034828695646828e-18
	-1.607540857894593e-14
	3.944869869360335e-05
	3.362073241180334e-03
	1.341795479661417e-03
	3.077973862222431e-01

 125	1.250000000000001e+00
	-2.996188793285747e-15
	-3.096708190356167e-18
	-1.608769409329804e-14
	4.021694943451496e-05
	3.375493173359064e-03
	1.375439040542851e-03
	3.078010989073576e-01

 126	1.260000000000001e+00
	-3.002423487377136e-15
	-3.159737713912137e-18
	-1.609950110921043e-14
	4.098823607385860e-05
	3.388033516464793e-03
	1.409211760206370e-03
	3.078048259735779e-01

 127	1.270000000000001e+00
	-3.008738169638641e-15
	-3.223940927951951e-18
	-1.611084185574589e-14
	4.176253148280857e-05
	3.399748339344054e-03
	1.443105130808099e-03
	3.078085664215857e-01

 128	1.280000000000001e+00
	-3.015129370543608e-15
	-3.289342056891475e-18
	-1.612172829125619e-14
	4.253981694285464e-05
	3.410689854289733e-03
	1.477111175305601e-03
	3.078123193146594e-01

 129	1.290000000000001e+00
	-3.021593742796751e-15
	-3.355965902486691e-18
	-1.613217210634201e-14
	4.332008181394201e-05
	3.420908317414217e-03
	1.511222428368858e-03
	3.078160837763787e-01

 130	1.300000000000001e+00
	-3.028128058052262e-15
	-3.423837858837049e-18
	-1.614218472698060e-14
	4.410332320218181e-05
	3.430451954006240e-03
	1.545431916427126e-03
	3.078198589882287e-01

 131	1.310000000000001e+00
	-3.034729203666456e-15
	-3.492983927846609e-18
	-1.615177731780482e-14
	4.488954562934509e-05
	3.439366906470121e-03
	1.579733137088806e-03
	3.078236441871356e-01

 132	1.320000000000001e+00
	-3.041394179488462e-15
	-3.563430735155327e-18
	-1.616096078551844e-14
	4.567876070610558e-05
	3.447697202518223e-03
	1.614120038147805e-03
	3.078274386629593e-01

 133	1.330000000000001e+00
	-3.048120094691652e-15
	-3.635205546557572e-18
	-1.616974578243316e-14
	4.647098681076280e-05
	3.455484741381513e-03
	1.648586996367081e-03
	3.078312417559734e-01

 134	1.340000000000001e+00
	-3.054904164648663e-15
	-3.708336284921264e-18
	-1.617814271011382e-14
	4.726624877495694e-05
	3.462769295913774e-03
	1.683128796208368e-03
	3.078350528543293e-01

 135	1.350000000000001e+00
	-3.061743707852303e-15
	-3.782851547625223e-18
	-1.618616172311875e-14
	4.806457757767259e-05
	3.469588528586838e-03
	1.717740608656329e-03
	3.078388713915473e-01

 136	1.360000000000001e+00
	-3.068636142884520e-15
	-3.858780624530698e-18
	-1.619381273282313e-14
	4.886601004863603e-05
	3.475978019504714e-03
	1.752417970266180e-03
	3.078426968440376e-01

 137	1.370000000000001e+00
	-3.075578985435241e-15
	-3.936153516504602e-18
	-1.620110541131410e-14
	4.967058858202875e-05
	3.481971304698986e-03
	1.787156762545769e-03
	3.078465287286611e-01

 138	1.380000000000001e+00
	-3.082569845372697e-15
	-4.015000954511761e-18
	-1.620804919534659e-14
	5.047836086127089e-05
	3.487599923103924e-03
	1.821953191766416e-03
	3.078503666003492e-01

 139	1.390000000000001e+00
	-3.089606423866647e-15
	-4.095354419295274e-18
	-1.621465329034988e-14
	5.128937959547673e-05
	3.492893470745292e-03
	1.856803769281577e-03
	3.078542100497851e-01

 140	1.400000000000001e+00
	-3.096686510565695e-15
	-4.177246161664423e-18
	-1.622092667447549e-14
	5.210370226804426e-05
	3.497879660809429e-03
	1.891705292418373e-03
	3.078580587011578e-01

 141	1.410000000000001e+00
	-3.103807980829635e-15
	-4.260709223408360e-18
	-1.622687810267734e-14
	5.292139089771692e-05
	3.502584388387727e-03
	1.926654825994449e-03
	3.078619122099885e-01

 142	1.420000000000001e+00
	-3.110968793017661e-15
	-4.345777458858560e-18
	-1.623251611081589e-14
	5.374251181234057e-05
	3.507031798814598e-03
	1.961649684501131e-03
	3.078657702610452e-01

 143	1.430000000000001e+00
	-3.118166985833083e-15
	-4.432485557119499e-18
	-1.623784901977868e-14
	5.456713543544178e-05
	3.511244358634032e-03
	1.996687414983768e-03
	3.078696325663345e-01

 144	1.440000000000001e+00
	-3.125400675725014e-15
	-4.520869064990417e-18
	-1.624288493960966e-14
	5.539533608566361e-05
	3.515242928339644e-03
	2.031765780640957e-03
	3.078734988631878e-01

 145	1.450000000000001e+00
	-3.132668054347263e-15
	-4.610964410601101e-18
	-1.624763177364094e-14
	5.622719178901922e-05
	3.519046836136143e-03
	2.066882745156490e-03
	3.078773689124216e-01

 146	1.460000000000001e+00
	-3.139967386074796e-15
	-4.702808927784891e-18
	-1.625209722262045e-14
	5.706278410385460e-05
	3.522673952065195e-03
	2.102036457770629e-03
	3.078812424966060e-01

 147	1.470000000000001e+00
	-3.147297005577681e-15
	-4.796440881214864e-18
	-1.625628878882963e-14
	5.790219795835879e-05
	3.526140761927019e-03
	2.137225239091470e-03
	3.078851194184059e-01

 148	1.480000000000001e+00
	-3.154655315452459e-15
	-4.891899492326895e-18
	-1.626021378018607e-14
	5.874552150040817e-05
	3.529462440509376e-03
	2.172447567641736e-03
	3.078889994990135e-01

 149	1.490000000000001e+00
	-3.162040783910870e-15
	-4.989224966057470e-18
	-1.626387931432571e-14
	5.959284595949245e-05
	3.532652923709155e-03
	2.207702067131833e-03
	3.078928825766691e-01

 150	1.500000000000001e+00
	-3.169451942525596e-15
	-5.088458518423251e-18
	-1.626729232266031e-14
	6.044426552043697e-05
	3.535724979198367e-03
	2.242987494446296e-03
	3.078967685052644e-01

 151	1.510000000000001e+00
	-3.176887384032696e-15
	-5.189642404970255e-18
	-1.627045955440582e-14
	6.129987720861000e-05
	3.538690275346299e-03
	2.278302728327521e-03
	3.079006571530342e-01

 152	1.520000000000001e+00
	-3.184345760190171e-15
	-5.292819950123779e-18
	-1.627338758057777e-14
	6.215978078628536e-05
	3.541559448163604e-03
	2.313646758738202e-03
	3.079045484013090e-01

 153	1.530000000000001e+00
	-3.191825779692394e-15
	-5.398035577467316e-18
	-1.627608279795030e-14