Title: ** sch_path: /home/andylithia/openmpw/project-yatsuhashi-chip1/xschem/gmid_test/nmos_test.sch
Date: Sun Jul 17 22:51:45  2022
Plotname: DC transfer characteristic
Flags: real
No. Variables: 8
No. Points: 181
Variables:
	0	v(v-sweep)	voltage
	1	@m.xm1.msky130_fd_pr__nfet_01v8[cgb]	capacitance
	2	@m.xm1.msky130_fd_pr__nfet_01v8[cgd]	capacitance
	3	@m.xm1.msky130_fd_pr__nfet_01v8[cgs]	capacitance
	4	@m.xm1.msky130_fd_pr__nfet_01v8[gds]	admittance
	5	@m.xm1.msky130_fd_pr__nfet_01v8[gm]	admittance
	6	i(@m.xm1.msky130_fd_pr__nfet_01v8[id])	current
	7	v(@m.xm1.msky130_fd_pr__nfet_01v8[vth])	voltage
Values:
 0	0.000000000000000e+00
	-5.318191808060488e-15
	-1.181073037970296e-18
	-6.874543541897675e-15
	6.530830939042171e-09
	2.617481834146798e-07
	2.626817136381924e-08
	2.858028612443423e-01

 1	1.000000000000000e-02
	-5.255821399932130e-15
	-1.218843460468093e-18
	-7.015664646663764e-15
	7.199637429724536e-09
	2.888009447575007e-07
	2.901871836584495e-08
	2.858028615597581e-01

 2	2.000000000000000e-02
	-5.193867101058840e-15
	-1.257802438199921e-18
	-7.157497315781961e-15
	7.934395688125861e-09
	3.186260067028416e-07
	3.205342745550338e-08
	2.858028619077609e-01

 3	3.000000000000000e-02
	-5.132352110787141e-15
	-1.297986338545821e-18
	-7.299969709055884e-15
	8.741235455528194e-09
	3.515102015612458e-07
	3.540143128852100e-08
	2.858028622916890e-01

 4	4.000000000000000e-02
	-5.071299583072128e-15
	-1.339432633649392e-18
	-7.443008899610379e-15
	9.626803259778380e-09
	3.877714648397584e-07
	3.909488346530393e-08
	2.858028627152318e-01

 5	5.000000000000000e-02
	-5.010732566078574e-15
	-1.382179936578046e-18
	-7.586541014307312e-15
	1.059829883540386e-08
	4.277625257888536e-07
	4.316928764042824e-08
	2.858028631824628e-01

 6	6.000000000000000e-02
	-4.950673942248762e-15
	-1.426268038873517e-18
	-7.730491377518941e-15
	1.166351319170081e-08
	4.718750763381179e-07
	4.766386588046989e-08
	2.858028636978769e-01

 7	7.000000000000001e-02
	-4.891146369073234e-15
	-1.471737949553032e-18
	-7.874784657700690e-15
	1.283086828746427e-08
	5.205444802941071e-07
	5.262197135808620e-08
	2.858028642664474e-01

 8	8.000000000000000e-02
	-4.832172220797827e-15
	-1.518631935624507e-18
	-8.019345016188752e-15
	1.410945825348415e-08
	5.742550911654699e-07
	5.809155112126241e-08
	2.858028648936738e-01

 9	9.000000000000000e-02
	-4.773773531296918e-15
	-1.566993564182043e-18
	-8.164096257632967e-15
	1.550909208494048e-08
	6.335462536661122e-07
	6.412566539356871e-08
	2.858028655856384e-01

 10	9.999999999999999e-02
	-4.715971938337187e-15
	-1.616867746150563e-18
	-8.308961981465447e-15
	1.704033770550697e-08
	6.990190706947163e-07
	7.078307064552608e-08
	2.858028663490824e-01

 11	1.100000000000000e-01
	-4.658788629449179e-15
	-1.668300781752454e-18
	-8.453865733799786e-15
	1.871456728342151e-08
	7.713440242246252e-07
	7.812887452852612e-08
	2.858028671914705e-01

 12	1.200000000000000e-01
	-4.602244289615590e-15
	-1.721340407771462e-18
	-8.598731159152496e-15
	2.054400365712978e-08
	8.512695448418919e-07
	8.623527167892815e-08
	2.858028681210833e-01

 13	1.300000000000000e-01
	-4.546359050975317e-15
	-1.776035846693465e-18
	-8.743482151380770e-15
	2.254176770458982e-08
	9.396316303715751e-07
	9.518237037649772e-08
	2.858028691471102e-01

 14	1.400000000000000e-01
	-4.491152444731106e-15
	-1.832437857806659e-18
	-8.888043003236216e-15
	2.472192646610087e-08
	1.037364618804817e-06
	1.050591210704896e-07
	2.858028702797489e-01

 15	1.500000000000000e-01
	-4.436643355436234e-15
	-1.890598790348012e-18
	-9.032338553943542e-15
	2.709954180586918e-08
	1.145513224195176e-06
	1.159643588572972e-07
	2.858028715303365e-01

 16	1.600000000000000e-01
	-4.382849977822068e-15
	-1.950572638786731e-18
	-9.176294334227501e-15
	2.969071937276440e-08
	1.265245945882943e-06
	1.280079730904279e-07
	2.858028729114770e-01

 17	1.700000000000000e-01
	-4.329789776313799e-15
	-2.012415100339790e-18
	-9.319836708228241e-15
	3.251265759608241e-08
	1.397869960814999e-06
	1.413122184062017e-07
	2.858028744371925e-01

 18	1.800000000000000e-01
	-4.277479447366329e-15
	-2.076183634818521e-18
	-9.462893011766089e-15
	3.558369642805731e-08
	1.544847605281180e-06
	1.560131825316148e-07
	2.858028761230905e-01

 19	1.900000000000000e-01
	-4.225934884735817e-15
	-2.141937526910856e-18
	-9.605391686441497e-15
	3.892336552165816e-08
	1.707814545451405e-06
	1.722624272724434e-07
	2.858028779865524e-01

 20	2.000000000000000e-01
	-4.175171147786001e-15
	-2.209737951007469e-18
	-9.747262409082910e-15
	4.255243151029281e-08
	1.888599724987267e-06
	1.902288200216033e-07
	2.858028800469496e-01

 21	2.100000000000000e-01
	-4.125202432910802e-15
	-2.279648038686490e-18
	-9.888436216086360e-15
	4.649294403581254e-08
	2.089247161997451e-06
	2.101005739348005e-07
	2.858028823258695e-01

 22	2.200000000000001e-01
	-4.076042048137376e-15
	-2.351732948975662e-18
	-1.002884562222285e-14
	5.076828015309971e-08
	2.312039645965532e-06
	2.320875155398016e-07
	2.858028848473764e-01

 23	2.300000000000001e-01
	-4.027702390956115e-15
	-2.426059941516954e-18
	-1.016842473352511e-14
	5.540318672395795e-08
	2.559524357264232e-06
	2.564235989173090e-07
	2.858028876383074e-01

 24	2.400000000000001e-01
	-3.980194929406181e-15
	-2.502698452764948e-18
	-1.030710935390320e-14
	6.042382040047054e-08
	2.834540396774573e-06
	2.833696856481178e-07
	2.858028907285829e-01

 25	2.500000000000001e-01
	-3.933530186427835e-15
	-2.581720175355835e-18
	-1.044483708517639e-14
	6.585778478881165e-08
	3.140248170307853e-06
	3.132166093885859e-07
	2.858028941515643e-01

 26	2.600000000000001e-01
	-3.887717727475357e-15
	-2.663199140790543e-18
	-1.058154742024964e-14
	7.173416437926257e-08
	3.480160521453538e-06
	3.462885431349476e-07
	2.858028979444375e-01

 27	2.700000000000001e-01
	-3.842766151367637e-15
	-2.747211805582968e-18
	-1.071718182920393e-14
	7.808355482719641e-08
	3.858175446763830e-06
	3.829466858815084e-07
	2.858029021486305e-01

 28	2.800000000000001e-01
	-3.798683084337060e-15
	-2.833837141030417e-18
	-1.085168383811108e-14
	8.493808917355450e-08
	4.278610158667204e-06
	4.235932833811043e-07
	2.858029068102885e-01

 29	2.900000000000001e-01
	-3.755475177221877e-15
	-2.923156726772328e-18
	-1.098499910042629e-14
	9.233145960232318e-08
	4.746236184276185e-06
	4.686759949908168e-07
	2.858029119807630e-01

 30	3.000000000000001e-01
	-3.713148105732034e-15
	-3.015254848310017e-18
	-1.111707546085294e-14
	1.002989343469921e-07
	5.266315102733583e-06
	5.186926150457344e-07
	2.858029177171565e-01

 31	3.100000000000001e-01
	-3.671706573704971e-15
	-3.110218598669326e-18
	-1.124786301161511e-14
	1.088773693785410e-07
	5.844634430743007e-06
	5.741961527702290e-07
	2.858029240829117e-01

 32	3.200000000000001e-01
	-3.631154319254294e-15
	-3.208137984396637e-18
	-1.137731414111511e-14
	1.181052145344153e-07
	6.487543066704051e-06
	6.358002693402619e-07
	2.858029311484254e-01

 33	3.300000000000001e-01
	-3.591494123702752e-15
	-3.309106036088474e-18
	-1.150538357499127e-14
	1.280225137816945e-07
	7.201985600174663e-06
	7.041850642977419e-07
	2.858029389917180e-01

 34	3.400000000000001e-01
	-3.552727823179752e-15
	-3.413218923663343e-18
	-1.163202840963010e-14
	1.386708993485928e-07
	7.995534687515171e-06
	7.801031960556540e-07
	2.858029476991373e-01

 35	3.500000000000001e-01
	-3.514856322754054e-15
	-3.520576076597056e-18
	-1.175720813822351e-14
	1.500935795069209e-07
	8.876420589394658e-06
	8.643863127121603e-07
	2.858029573660939e-01

 36	3.600000000000002e-01
	-3.477879612963646e-15
	-3.631280309350977e-18
	-1.188088466949584e-14
	1.623353198445982e-07
	9.853556864815196e-06
	9.579517598373380e-07
	2.858029680978343e-01

 37	3.700000000000002e-01
	-3.441796788597691e-15
	-3.745437952236206e-18
	-1.200302233925824e-14
	1.754424179319727e-07
	1.093656112344381e-05
	1.061809521368426e-06
	2.858029800102345e-01

 38	3.800000000000002e-01
	-3.406606069578889e-15
	-3.863158987967439e-18
	-1.212358791497851e-14
	1.894626713590258e-07
	1.213576965786998e-05
	1.177069338352661e-06
	2.858029932306115e-01

 39	3.900000000000002e-01
	-3.372304823790299e-15
	-3.984557194173270e-18
	-1.224255059358135e-14
	2.044453392025306e-07
	1.346224471488595e-05
	1.304947938161677e-06
	2.858030078985702e-01

 40	4.000000000000002e-01
	-3.338889591686234e-15
	-4.109750292143566e-18
	-1.235988199272132e-14
	2.204410970734735e-07
	1.492777312530881e-05
	1.446776294172608e-06
	2.858030241668192e-01

 41	4.100000000000002e-01
	-3.306356112525019e-15
	-4.238860102107351e-18
	-1.247555613579120e-14
	2.375019859950864e-07
	1.654485500062674e-05
	1.604006823021906e-06
	2.858030422020051e-01

 42	4.200000000000002e-01
	-3.274699352059516e-15
	-4.372012705350490e-18
	-1.258954943095053e-14
	2.556813554711870e-07
	1.832668122724943e-05
	1.778220413702615e-06
	2.858030621855190e-01

 43	4.300000000000002e-01
	-3.243913531521170e-15
	-4.509338613497911e-18
	-1.270184064447576e-14
	2.750338012227016e-07
	2.028709855041282e-05
	1.971133170354644e-06
	2.858030843142679e-01

 44	4.400000000000002e-01
	-3.213992157734212e-15
	-4.650972945300289e-18
	-1.281241086874811e-14
	2.956150981969280e-07
	2.244056114430905e-05
	2.184602739002484e-06
	2.858031088014062e-01

 45	4.500000000000002e-01
	-3.184928054198160e-15
	-4.797055611284959e-18
	-1.292124348520789e-14
	3.174821295889018e-07
	2.480206771636680e-05
	2.420634078177776e-06
	2.858031358769880e-01

 46	4.600000000000002e-01
	-3.156713392979600e-15
	-4.947731506645237e-18
	-1.302832412261293e-14
	3.406928127560749e-07
	2.738708339413032e-05
	2.681384524804334e-06
	2.858031657885582e-01

 47	4.700000000000003e-01
	-3.129339727257489e-15
	-5.103150712765797e-18
	-1.313364061094660e-14
	3.653060230556396e-07
	3.021144589372863e-05
	2.969168000421691e-06
	2.858031988016309e-01

 48	4.800000000000003e-01
	-3.102798024370948e-15
	-5.263468707797885e-18
	-1.323718293132406e-14
	3.913815167864349e-07
	3.329125576842507e-05
	3.286458199272267e-06
	2.858032352000577e-01

 49	4.900000000000003e-01
	-3.077078699222715e-15
	-5.428846586723471e-18
	-1.333894316224930e-14
	4.189798545731683e-07
	3.664275088111489e-05
	3.635890599457394e-06
	2.858032752862492e-01

 50	5.000000000000002e-01
	-3.052171647898010e-15
	-5.599451291365533e-18
	-1.343891542257359e-14
	4.481623266871267e-07
	4.028216563044568e-05
	4.020263141707956e-06
	2.858033193812662e-01

 51	5.100000000000002e-01
	-3.028066281363639e-15
	-5.775455850829601e-18
	-1.353709581150544e-14
	4.789908819527503e-07
	4.422557587871707e-05
	4.442535427688788e-06
	2.858033678247093e-01

 52	5.200000000000002e-01
	-3.004751559119747e-15
	-5.957039632883307e-18
	-1.363348234601656e-14
	5.115280620401563e-07
	4.848873097063665e-05
	4.905826301433617e-06
	2.858034209744625e-01

 53	5.300000000000002e-01
	-2.982216022682776e-15
	-6.144388606810273e-18
	-1.372807489598364e-14
	5.458369430874826e-07
	5.308687468300747e-05
	5.413409693661216e-06
	2.858034792061953e-01

 54	5.400000000000003e-01
	-2.960447828785918e-15
	-6.337695618298887e-18
	-1.382087511739733e-14
	5.819810867301844e-07
	5.803455739202621e-05
	5.968708629374499e-06
	2.858035429126804e-01

 55	5.500000000000003e-01
	-2.939434782191008e-15
	-6.537160676959006e-18
	-1.391188638396068e-14
	6.200245027342221e-07
	6.334544217121102e-05
	6.575287324178365e-06
	2.858036125028905e-01

 56	5.600000000000003e-01
	-2.919164368012781e-15
	-6.742991257089916e-18
	-1.400111371738989e-14
	6.600316255330956e-07
	6.903210792209105e-05
	7.236841323876953e-06
	2.858036884008620e-01

 57	5.700000000000003e-01
	-2.899623783465126e-15
	-6.955402612355003e-18
	-1.408856371671716e-14
	7.020673070518714e-07
	7.510585297447237e-05
	7.957185674669127e-06
	2.858037710443302e-01

 58	5.800000000000003e-01
	-2.880799968945921e-15
	-7.174618105053190e-18
	-1.417424448688442e-14
	7.461968282619079e-07
	8.157650285662668e-05
	8.740241147022792e-06
	2.858038608831564e-01

 59	5.900000000000003e-01
	-2.862679638385518e-15
	-7.400869550716688e-18
	-1.425816556690189e-14
	7.924859319460944e-07
	8.845222611278489e-05
	9.590018574287621e-06
	2.858039583775239e-01

 60	6.000000000000003e-01
	-2.845249308791118e-15
	-7.634397578798697e-18
	-1.434033785783257e-14
	8.410008791638975e-07
	9.573936212263540e-05
	1.051060140636059e-05
	2.858040639959398e-01

 61	6.100000000000003e-01
	-2.828495328927105e-15
	-7.875452010261419e-18
	-1.442077355084860e-14
	8.918085318884383e-07
	1.034422648450687e-04
	1.150612661820783e-05
	2.858041782130326e-01

 62	6.200000000000003e-01
	-2.812403907078893e-15
	-8.124292252912102e-18
	-1.449948605559021e-14
	9.449764642437182e-07
	1.115631662597382e-04
	1.258076415162509e-05
	2.858043015072064e-01

 63	6.300000000000003e-01
	-2.796961137854897e-15
	-8.381187715387941e-18
	-1.457648992904319e-14
	1.000573104701340e-06
	1.201020630132238e-04
	1.373869510512471e-05
	2.858044343581322e-01

 64	6.400000000000003e-01
	-2.782153027987995e-15
	-8.646418240732315e-18
	-1.465180080513564e-14
	1.058667911504378e-06
	1.290566293943305e-04
	1.498408892008368e-05
	2.858045772441295e-01

 65	6.500000000000004e-01
	-2.767965521105147e-15
	-8.920274560561184e-18
	-1.472543532523836e-14
	1.119331583476130e-06
	1.384221592730736e-04
	1.632107984016366e-05
	2.858047306394629e-01

 66	6.600000000000004e-01
	-2.754384521439511e-15
	-9.203058770871229e-18
	-1.479741106973905e-14
	1.182636308247931e-06
	1.481915390525778e-04
	1.775374294449568e-05
	2.858048950116068e-01

 67	6.700000000000004e-01
	-2.741395916465819e-15
	-9.495084830599294e-18
	-1.486774649084496e-14
	1.248656049810322e-06
	1.583552530194254e-04
	1.928607007234698e-05
	2.858050708184598e-01

 68	6.800000000000004e-01
	-2.728985598445749e-15
	-9.796679084101925e-18
	-1.493646084675304e-14
	1.317466877161514e-06
	1.689014217563717e-04
	2.092194596724641e-05
	2.858052585056418e-01

 69	6.900000000000004e-01
	-2.717139484874606e-15
	-1.010818080879331e-17
	-1.500357413731378e-14
	1.389147335707100e-06
	1.798158735256972e-04
	2.266512497142069e-05
	2.858054585037926e-01

 70	7.000000000000004e-01
	-2.705843537826747e-15
	-1.042994278923994e-17
	-1.506910704129885e-14
	1.463778862961515e-06
	1.910822477667936e-04
	2.451920859661158e-05
	2.858056712260160e-01

 71	7.100000000000004e-01
	-2.695083782200892e-15
	-1.076233191909013e-17
	-1.513308085537046e-14
	1.541446250027295e-06
	2.026821291043973e-04
	2.648762428500932e-05
	2.858058970654453e-01

 72	7.200000000000004e-01
	-2.684846322871409e-15
	-1.110572983228877e-17
	-1.519551743483641e-14
	1.622238150290335e-06
	2.145952095594387e-04
	2.857360565440364e-05
	2.858061363929685e-01

 73	7.300000000000004e-01
	-2.675117360755375e-15
	-1.146053356510744e-17
	-1.525643913626244e-14
	1.706247636778766e-06
	2.267994760166932e-04
	3.078017449529260e-05
	2.858063895551808e-01

 74	7.400000000000004e-01
	-2.665883207808779e-15
	-1.182715625060692e-17
	-1.531586876200156e-14
	1.793572809699623e-06
	2.392714194533393e-04
	3.311012475538815e-05
	2.858066568725348e-01

 75	7.500000000000004e-01
	-2.657130300968779e-15
	-1.220602784723745e-17
	-1.537382950668797e-14
	1.884317455798508e-06
	2.519862619870459e-04
	3.556600870964063e-05
	2.858069386377664e-01

 76	7.600000000000005e-01
	-2.648845215061462e-15
	-1.259759590337736e-17
	-1.543034490573328e-14
	1.978591761393488e-06
	2.649181974743304e-04
	3.815012547274835e-05
	2.858072351145679e-01

 77	7.700000000000005e-01
	-2.641014674697532e-15
	-1.300232635970916e-17
	-1.548543878585170e-14
	2.076513081220423e-06
	2.780406411869344e-04
	4.086451196727227e-05
	2.858075465365604e-01

 78	7.800000000000005e-01
	-2.633625565180454e-15
	-1.342070439143881e-17
	-1.553913521763160e-14
	2.178206765601966e-06
	2.913264840187523e-04
	4.371093641527381e-05
	2.858078731065467e-01

 79	7.900000000000005e-01
	-2.626664942453523e-15
	-1.385323529247549e-17
	-1.559145847016206e-14
	2.283807048920545e-06
	3.047483467256092e-04
	4.669089437605274e-05
	2.858082149960591e-01

 80	8.000000000000005e-01
	-2.620120042114172e-15
	-1.430044540380429e-17
	-1.564243296771437e-14
	2.393458002943076e-06
	3.182788298678611e-04
	4.980560730832782e-05
	2.858085723451804e-01

 81	8.100000000000005e-01
	-2.613978287525239e-15
	-1.476288308840800e-17
	-1.569208324847089e-14
	2.507314559216254e-06
	3.318907553999632e-04
	5.305602359318772e-05
	2.858089452626825e-01

 82	8.200000000000005e-01
	-2.608227297053862e-15
	-1.524111975522919e-17
	-1.574043392528684e-14
	2.625543605531441e-06
	3.455573962172755e-04
	5.644282191536218e-05
	2.858093338263953e-01

 83	8.300000000000005e-01
	-2.602854890469945e-15
	-1.573575093479300e-17
	-1.578750964846357e-14
	2.748325162350365e-06
	3.592526904109903e-04
	5.996641686560623e-05
	2.858097380838630e-01

 84	8.400000000000005e-01
	-2.597849094536471e-15
	-1.624739740926404e-17
	-1.583333507050666e-14
	2.875853646094496e-06
	3.729514374787893e-04
	6.362696659697427e-05
	2.858101580532069e-01

 85	8.500000000000005e-01
	-2.593198147824645e-15
	-1.677670639985768e-17
	-1.587793481283636e-14
	3.008339227335803e-06
	3.866294742719653e-04
	6.742438234288334e-05
	2.858105937242232e-01

 86	8.600000000000005e-01
	-2.588890504787072e-15
	-1.732435281468892e-17
	-1.592133343441323e-14
	3.146009293193549e-06
	4.002638290104291e-04
	7.135833958544392e-05
	2.858110450596703e-01

 87	8.700000000000006e-01
	-2.584914839122123e-15
	-1.789104056031515e-17
	-1.596355540223804e-14
	3.289110024648881e-06
	4.138328522470340e-04
	7.542829064863123e-05
	2.858115119967008e-01

 88	8.800000000000006e-01
	-2.581260046462791e-15
	-1.847750392039812e-17
	-1.600462506368058e-14
	3.437908101046836e-06
	4.273163241955708e-04
	7.963347848237739e-05
	2.858119944484458e-01

 89	8.900000000000006e-01
	-2.577915246422940e-15
	-1.908450900510916e-17
	-1.604456662058949e-14
	3.592692545778668e-06
	4.406955383385503e-04
	8.397295140037949e-05
	2.858124923057082e-01

 90	9.000000000000006e-01
	-2.574869784033477e-15
	-1.971285527509221e-17
	-1.608340410513192e-14
	3.753776729041426e-06
	4.539533616896581e-04
	8.844557853592964e-05
	2.858130054387307e-01

 91	9.100000000000006e-01
	-2.572113230600505e-15
	-2.036337714400879e-17
	-1.612116135731001e-14
	3.921500545676163e-06
	4.670742724925970e-04
	9.305006578591397e-05
	2.858135336990260e-01

 92	9.200000000000006e-01
	-2.569635384017023e-15
	-2.103694566390989e-17
	-1.615786200409868e-14
	4.096232788415542e-06
	4.800443764867622e-04
	9.778497202276452e-05
	2.858140769212402e-01

 93	9.300000000000006e-01
	-2.567426268558742e-15
	-2.173447029790372e-17
	-1.619352944014834e-14
	4.278373739451839e-06
	4.928514031571218e-04
	1.026487253669475e-04
	2.858146349250098e-01

 94	9.400000000000006e-01
	-2.565476134193999e-15
	-2.245690078483849e-17
	-1.622818680999449e-14
	4.468358006100006e-06
	5.054846836096774e-04
	1.076396393279255e-04
	2.858152075168237e-01

 95	9.500000000000006e-01
	-2.563775455436865e-15
	-2.320522910096071e-17
	-1.626185699171547e-14
	4.666657629514615e-06
	5.179351118761039e-04
	1.127559286388249e-04
	2.858157944918373e-01

 96	9.600000000000006e-01
	-2.562314929771340e-15
	-2.398049152378537e-17
	-1.629456258197926e-14
	4.873785498964607e-06
	5.301950915542469e-04
	1.179957246286427e-04
	2.858163956356297e-01

 97	9.700000000000006e-01
	-2.561085475674020e-15
	-2.478377080368439e-17
	-1.632632588241975e-14
	5.090299108122909e-06
	5.422584697395439e-04
	1.233570899951743e-04
	2.858170107259093e-01

 98	9.800000000000006e-01
	-2.560078230260861e-15
	-2.561619844899674e-17
	-1.635716888728296e-14
	5.316804694242983e-06
	5.541204602016031e-04
	1.288380328614508e-04
	2.858176395341135e-01

 99	9.900000000000007e-01
	-2.559284546583401e-15
	-2.647895713075708e-17
	-1.638711327228417e-14
	5.553961806025790e-06
	5.657775577159935e-04
	1.344365200178065e-04
	2.858182818269437e-01

 100	1.000000000000001e+00
	-2.558695990597821e-15
	-2.737328321347444e-17
	-1.641618038461687e-14
	5.802488351496249e-06
	5.772274453807177e-04
	1.401504892704458e-04
	2.858189373677686e-01

 101	1.010000000000001e+00
	-2.558304337829941e-15
	-2.830046941870127e-17
	-1.644439123405560e-14
	6.063166183371459e-06
	5.884688966360522e-04
	1.459778608351163e-04
	2.858196059179417e-01

 102	1.020000000000001e+00
	-2.558101569757230e-15
	-2.926186762849828e-17
	-1.647176648509536e-14
	6.336847286292049e-06
	5.995016735724200e-04
	1.519165477310443e-04
	2.858202872379886e-01

 103	1.030000000000001e+00
	-2.558079869928552e-15
	-3.025889183624239e-17
	-1.649832645007074e-14
	6.624460637975029e-06
	6.103264229595022e-04
	1.579644651453742e-04
	2.858209810886800e-01

 104	1.040000000000001e+00
	-2.558231619840590e-15
	-3.129302125260826e-17
	-1.652409108319997e-14
	6.927019824912940e-06
	6.209445712668080e-04
	1.641195387518699e-04
	2.858216872319956e-01

 105	1.050000000000001e+00
	-2.558549394589020e-15
	-3.236580357493027e-17
	-1.654907997549923e-14
	7.245631502767370e-06
	6.313582197765374e-04
	1.703797119795129e-04
	2.858224054319422e-01

 106	1.060000000000001e+00
	-2.559025958311348e-15
	-3.347885842855616e-17
	-1.657331235051446e-14
	7.581504802154397e-06
	6.415700407178715e-04
	1.767429522367304e-04
	2.858231354552891e-01

 107	1.070000000000001e+00
	-2.559654259436964e-15
	-3.463388098920935e-17
	-1.659680706081902e-14
	7.935961792165804e-06
	6.515831751822407e-04
	1.832072561054864e-04
	2.858238770721440e-01

 108	1.080000000000001e+00
	-2.560427425759142e-15
	-3.583264579579960e-17
	-1.661958258522699e-14
	8.310449126746212e-06
	6.614011334138670e-04
	1.897706535261535e-04
	2.858246300564440e-01

 109	1.090000000000001e+00
	-2.561338759342354e-15
	-3.707701076355717e-17
	-1.664165702667312e-14
	8.706551012982245e-06
	6.710276979123045e-04
	1.964312109992920e-04
	2.858253941863247e-01

 110	1.100000000000001e+00
	-2.562381731277175e-15
	-3.836892140780257e-17
	-1.666304811071238e-14
	9.126003655414290e-06
	6.804668296350666e-04
	2.031870338340355e-04
	2.858261692443666e-01

 111	1.110000000000001e+00
	-2.563549976294271e-15
	-3.971041528911330e-17
	-1.668377318459299e-14
	9.570711346570506e-06
	6.897225774503205e-04
	2.100362674749578e-04
	2.858269550177652e-01

 112	1.120000000000001e+00
	-2.564837287247483e-15
	-4.110362669111470e-17
	-1.670384921685869e-14
	1.004276439086305e-05
	6.987989908633617e-04
	2.169770979401902e-04
	2.858277512983634e-01

 113	1.130000000000001e+00
	-2.566237609475382e-15
	-4.255079154256106e-17
	-1.672329279743734e-14
	1.054445906645752e-05
	7.077000359261921e-04
	2.240077514031490e-04
	2.858285578826125e-01

 114	1.140000000000001e+00
	-2.567745035049476e-15
	-4.405425259585259e-17
	-1.674212013817452e-14
	1.107831984725655e-05
	7.164295141383417e-04
	2.311264929488632e-04
	2.858293745714311e-01

 115	1.150000000000001e+00
	-2.569353796916398e-15
	-4.561646487457639e-17
	-1.676034707377219e-14
	1.164712412398688e-05
	7.249909840589790e-04
	2.383316245334855e-04
	2.858302011699681e-01

 116	1.160000000000001e+00
	-2.571058262940309e-15
	-4.724000140311611e-17
	-1.677798906309411e-14
	1.225392967851244e-05
	7.333876852762671e-04
	2.456214821724029e-04
	2.858310374872804e-01

 117	1.170000000000001e+00
	-2.572852929851212e-15
	-4.892755923181319e-17
	-1.679506119080082e-14
	1.290210517743853e-05
	7.416224643206280e-04
	2.529944323785092e-04
	2.858318833359197e-01

 118	1.180000000000001e+00
	-2.574732417103696e-15
	-5.068196577157121e-17
	-1.681157816927883e-14
	1.359536395779969e-05
	7.496977020653319e-04
	2.604488678678164e-04
	2.858327385314534e-01

 119	1.190000000000001e+00
	-2.576691460649936e-15
	-5.250618545222378e-17
	-1.682755434082968e-14
	1.433780137639792e-05
	7.576152421328474e-04
	2.679832025449350e-04
	2.858336028918738e-01

 120	1.200000000000001e+00
	-2.578724906630063e-15
	-5.440332671931506e-17
	-1.684300368008611e-14
	1.513393598148833e-05
	7.653763198210157e-04
	2.755958657760192e-04
	2.858344762369464e-01

 121	1.210000000000001e+00
	-2.580827704982423e-15
	-5.637664938429771e-17
	-1.685793979662366e-14
	1.598875473617643e-05
	7.729814910839370e-04
	2.832852959520456e-04
	2.858353583874802e-01

 122	1.220000000000001e+00
	-2.582994902975069e-15
	-5.842957234343386e-17
	-1.687237593773764e-14
	1.690776247079068e-05
	7.804305611536510e-04
	2.910499333408899e-04
	2.858362491644902e-01

 123	1.230000000000001e+00
	-2.585221638660032e-15
	-6.056568168088250e-17
	-1.688632499135614e-14
	1.789703565853718e-05
	7.877225124771175e-04
	2.988882122228524e-04
	2.858371483883131e-01

 124	1.240000000000001e+00
	-2.587503134250567e-15
	-6.278873917164025e-17
	-1.689979948906135e-14
	1.896328048478151e-05
	7.948554317788370e-04
	3.067985523017753e-04
	2.858380558776144e-01

 125	1.250000000000001e+00
	-2.589834689421476e-15
	-6.510269120003495e-17
	-1.691281160919257e-14
	2.011389500265400e-05
	8.018264362532934e-04
	3.147793493828357e-04
	2.858389714483136e-01

 126	1.260000000000001e+00
	-2.592211674532321e-15
	-6.751167810945490e-17
	-1.692537318000487e-14
	2.135703492104688e-05
	8.086315991581825e-04
	3.228289653094184e-04
	2.858398949124382e-01

 127	1.270000000000001e+00
	-2.594629523772394e-15
	-7.002004399882823e-17
	-1.693749568285935e-14
	2.270168223735167e-05
	8.152658754357804e-04
	3.309457171559251e-04
	2.858408260768779e-01

 128	1.280000000000001e+00
	-2.597083728226826e-15
	-7.263234698107107e-17
	-1.694919025542089e-14
	2.415771548581785e-05
	8.217230284544688e-04
	3.391278656818171e-04
	2.858417647420685e-01

 129	1.290000000000001e+00
	-2.599569828862077e-15
	-7.535336991828041e-17
	-1.696046769484136e-14
	2.573597980084252e-05
	8.279955595562492e-04
	3.473736030660109e-04
	2.858427107005717e-01

 130	1.300000000000001e+00
	-2.602083409429901e-15
	-7.818813164776262e-17
	-1.697133846090608e-14
	2.744835427031555e-05
	8.340746428384679e-04
	3.556810399611231e-04
	2.858436637356043e-01

 131	1.310000000000001e+00
	-2.604620089288081e-15
	-8.114189871219314e-17
	-1.698181267912340e-14
	2.930781315774319e-05
	8.399500685059306e-04
	3.640481919357965e-04
	2.858446236194745e-01

 132	1.320000000000001e+00
	-2.607175516136650e-15
	-8.422019760602355e-17
	-1.699190014373714e-14
	3.132847649111677e-05
	8.456101992108550e-04
	3.724729654118932e-04
	2.858455901119670e-01

 133	1.330000000000001e+00
	-2.609745358668749e-15
	-8.742882754893988e-17
	-1.700161032064318e-14
	3.352564425393604e-05
	8.510419450461366e-04
	3.809531432536301e-04
	2.858465629586993e-01

 134	1.340000000000001e+00
	-2.612325299135016e-15
	-9.077387379544817e-17
	-1.701095235019208e-14
	3.591580699646545e-05
	8.562307642402739e-04
	3.894863702292088e-04
	2.858475418894411e-01

 135	1.350000000000001e+00
	-2.614911025821592e-15
	-9.426172148760760e-17
	-1.701993504986039e-14
	3.851662417772406e-05
	8.611606980504261e-04
	3.980701386431121e-04
	2.858485266164800e-01

 136	1.360000000000001e+00
	-2.617498225441886e-15
	-9.789907005552418e-17
	-1.702856691677452e-14
	4.134686006866955e-05
	8.658144497427581e-04
	4.067017745293239e-04
	2.858495168330280e-01

 137	1.370000000000001e+00
	-2.620082575443470e-15
	-1.016929481673009e-16
	-1.703685613007131e-14
	4.442626578217158e-05
	8.701735186965544e-04
	4.153784249005300e-04
	2.858505122117623e-01

 138	1.380000000000001e+00
	-2.622659736232268e-15
	-1.056507292267711e-16
	-1.704481055308093e-14
	4.777539521793437e-05
	8.742184013021553e-04
	4.240970466624608e-04
	2.858515124035518e-01

 139	1.390000000000001e+00
	-2.625225343317585e-15
	-1.097801474134149e-16
	-1.705243773531827e-14
	5.141534278352062e-05
	8.779288700882404e-04
	4.328543979188459e-04
	2.858525170364639e-01

 140	1.400000000000001e+00
	-2.627774999382758e-15
	-1.140893142543190e-16
	-1.705974491426998e-14
	5.536739211937501e-05
	8.812843409868184e-04
	4.416470325004095e-04
	2.858535257151378e-01

 141	1.410000000000001e+00
	-2.630304266287915e-15
	-1.185867357128308e-16
	-1.706673901696580e-14
	5.965256820107728e-05
	8.842643353680752e-04
	4.504712986356104e-04
	2.858545380206204e-01

 142	1.420000000000001e+00
	-2.632808657013439e-15
	-1.232813297725707e-16
	-1.707342666132333e-14
	6.429109056423803e-05
	8.868490380430733e-04
	4.593233427217884e-04
	2.858555535108173e-01

 143	1.430000000000001e+00
	-2.635283627554352e-15
	-1.281824444887224e-16
	-1.707981415725746e-14
	6.930173328400911e-05
	8.890199446000330e-04
	4.681991191303289e-04
	2.858565717216013e-01

 144	1.440000000000001e+00
	-2.637724568778843e-15
	-1.332998764707669e-16
	-1.708590750754649e-14
	7.470110770245882e-05
	8.907605812950094e-04
	4.770944068639898e-04
	2.858575921687372e-01

 145	1.450000000000001e+00
	-2.640126798266019e-15
	-1.386438897521578e-16
	-1.709171240844951e-14
	8.050289618498763e-05
	8.920572688439437e-04
	4.860048336585927e-04
	2.858586143506349e-01

 146	1.460000000000001e+00
	-2.642485552141635e-15
	-1.442252349925770e-16
	-1.709723425007096e-14
	8.671707819707107e-05
	8.928998890689715e-04
	4.949259077724914e-04
	2.858596377520078e-01

 147	1.470000000000001e+00
	-2.644795976932947e-15
	-1.500551689474538e-16
	-1.710247811647104e-14
	9.334920182941935e-05
	8.932826022934688e-04
	5.038530572397071e-04
	2.858606618483625e-01

 148	1.480000000000001e+00
	-2.647053121468064e-15
	-1.561454741270304e-16
	-1.710744878552314e-14
	1.003997621328215e-04
	8.932044559896347e-04
	5.127816758005951e-04
	2.858616861112823e-01

 149	1.490000000000001e+00
	-2.649251928848406e-15
	-1.625084785536221e-16
	-1.711215072852232e-14
	1.078637496928728e-04
	8.926698238693131e-04
	5.217071741167782e-04
	2.858627100142947e-01

 150	1.500000000000001e+00
	-2.651387228527652e-15
	-1.691570755105380e-16
	-1.711658810955205e-14
	1.157304267139335e-04
	8.916886212546883e-04
	5.306250342952642e-04
	2.858637330391240e-01

 151	1.510000000000001e+00
	-2.653453728535181e-15
	-1.761047431594362e-16
	-1.712076478462008e-14
	1.239833726402927e-04
	8.902762578500069e-04
	5.395308652747053e-04
	2.858647546820484e-01

 152	1.520000000000001e+00
	-2.655446007887550e-15
	-1.833655638847171e-16
	-1.712468430057741e-14
	1.326008179616470e-04
	8.884533119109982e-04
	5.484204563471966e-04
	2.858657744600450e-01

 153	1.530000000000001e+00
	-2.657358509237316e-15
	-1.909542432038855e-16
	-1.712834989383861e-14