Title: ** sch_path: /home/andylithia/openmpw/project-yatsuhashi-chip1/xschem/gmid_test/nmos_test.sch
Date: Tue Jul 19 23:15:45  2022
Plotname: DC transfer characteristic
Flags: real
No. Variables: 8
No. Points: 181
Variables:
	0	v(v-sweep)	voltage
	1	@m.xm1.msky130_fd_pr__nfet_01v8[cgb]	capacitance
	2	@m.xm1.msky130_fd_pr__nfet_01v8[cgd]	capacitance
	3	@m.xm1.msky130_fd_pr__nfet_01v8[cgs]	capacitance
	4	@m.xm1.msky130_fd_pr__nfet_01v8[gds]	admittance
	5	@m.xm1.msky130_fd_pr__nfet_01v8[gm]	admittance
	6	i(@m.xm1.msky130_fd_pr__nfet_01v8[id])	current
	7	v(@m.xm1.msky130_fd_pr__nfet_01v8[vth])	voltage
Values:
 0	0.000000000000000e+00
	-5.157565861734291e-15
	9.750745551283860e-19
	-3.994297883998317e-15
	3.292022146263024e-08
	1.313083032538529e-06
	1.191522622848793e-07
	4.021680772974737e-01

 1	1.000000000000000e-02
	-5.106370814178882e-15
	9.884829669785321e-19
	-4.101290200654378e-15
	3.672835368065519e-08
	1.463744590103586e-06
	1.330230146951172e-07
	4.021680783547498e-01

 2	2.000000000000000e-02
	-5.055275918154232e-15
	1.001560367554434e-18
	-4.209730182994729e-15
	4.096839271347446e-08
	1.631325213240002e-06
	1.484835140598678e-07
	4.021680795332956e-01

 3	3.000000000000000e-02
	-5.004298843566943e-15
	1.014283400845171e-18
	-4.319572477797210e-15
	4.568782960822391e-08
	1.817670769009298e-06
	1.657120256796964e-07
	4.021680808467282e-01

 4	4.000000000000000e-02
	-4.953457941331898e-15
	1.026628792473851e-18
	-4.430768991437021e-15
	5.093912226150443e-08
	2.024821548220727e-06
	1.849062298041627e-07
	4.021680823101554e-01

 5	5.000000000000000e-02
	-4.902772194169091e-15
	1.038573412333599e-18
	-4.543268952280335e-15
	5.678017215061833e-08
	2.255032100375131e-06
	2.062852634161887e-07
	4.021680839403355e-01

 6	6.000000000000000e-02
	-4.852261164668291e-15
	1.050094337847148e-18
	-4.657018983534028e-15
	6.327483979364961e-08
	2.510793100134381e-06
	2.300919703380626e-07
	4.021680857558432e-01

 7	7.000000000000001e-02
	-4.801944940799719e-15
	1.061168917534067e-18
	-4.771963186436377e-15
	7.049350093389347e-08
	2.794855476196305e-06
	2.565953811025560e-07
	4.021680877772670e-01

 8	8.000000000000000e-02
	-4.751844079069585e-15
	1.071774834560024e-18
	-4.888043233609402e-15
	7.851364534798192e-08
	3.110257065773937e-06
	2.860934464988432e-07
	4.021680900274209e-01

 9	9.000000000000000e-02
	-4.701979545538652e-15
	1.081890169935607e-18
	-5.005198472327660e-15
	8.742052003621786e-08
	3.460352095321938e-06
	3.189160515172179e-07
	4.021680925315786e-01

 10	9.999999999999999e-02
	-4.652372654940492e-15
	1.091493465027916e-18
	-5.123366037393115e-15
	9.730781836146870e-08
	3.848843831406221e-06
	3.554283396337655e-07
	4.021680953177335e-01

 11	1.100000000000000e-01
	-4.603045008152483e-15
	1.100563783046286e-18
	-5.242480973241821e-15
	1.082784164524444e-07
	4.279820795377199e-06
	3.960343810578062e-07
	4.021680984168854e-01

 12	1.200000000000000e-01
	-4.554018428288188e-15
	1.109080769164413e-18
	-5.362476364844400e-15
	1.204451578708259e-07
	4.757796992474552e-06
	4.411812227794252e-07
	4.021681018633593e-01

 13	1.300000000000000e-01
	-4.505314895692544e-15
	1.117024708944869e-18
	-5.483283476902144e-15
	1.339316871520239e-07
	5.287756670812018e-06
	4.913633630773912e-07
	4.021681056951562e-01

 14	1.400000000000000e-01
	-4.456956482132912e-15
	1.124376584738439e-18
	-5.604831900781795e-15
	1.488733323585548e-07
	5.875204198912834e-06
	5.471276986602800e-07
	4.021681099543405e-01

 15	1.500000000000000e-01
	-4.408965284487999e-15
	1.131118129740139e-18
	-5.727049708576984e-15
	1.654180362255355e-07
	6.526219732477933e-06
	6.090789989017953e-07
	4.021681146874790e-01

 16	1.600000000000000e-01
	-4.361363358243578e-15
	1.137231879395433e-18
	-5.849863613633501e-15
	1.837273348224392e-07
	7.247521432017625e-06
	6.778859687843574e-07
	4.021681199461215e-01

 17	1.700000000000000e-01
	-4.314172651108365e-15
	1.142701219865044e-18
	-5.973199136828525e-15
	2.039773818970398e-07
	8.046535092651765e-06
	7.542879702708951e-07
	4.021681257873349e-01

 18	1.800000000000000e-01
	-4.267414937065551e-15
	1.147510433273967e-18
	-6.096980777851976e-15
	2.263600162006205e-07
	8.931472155115212e-06
	8.391024809683076e-07
	4.021681322743003e-01

 19	1.900000000000000e-01
	-4.221111751174972e-15
	1.151644739489808e-18
	-6.221132190701647e-15
	2.510838681131075e-07
	9.911417181503825e-06
	9.332333792015115e-07
	4.021681394769855e-01

 20	2.000000000000000e-01
	-4.175284325437845e-15
	1.155090334197298e-18
	-6.345576362573693e-15
	2.783755007897022e-07
	1.099642599850134e-05
	1.037680156043008e-06
	4.021681474728803e-01

 21	2.100000000000000e-01
	-4.129953526030835e-15
	1.157834423060109e-18
	-6.470235795304333e-15
	3.084805798350102e-07
	1.219763583169312e-05
	1.153548167470524e-06
	4.021681563478339e-01

 22	2.200000000000001e-01
	-4.085139792207841e-15
	1.159865251786351e-18
	-6.595032688501822e-15
	3.416650641781913e-07
	1.352738887292574e-05
	1.282060053653444e-06
	4.021681661969869e-01

 23	2.300000000000001e-01
	-4.040863077157912e-15
	1.161172131941714e-18
	-6.719889123495505e-15
	3.782164093764886e-07
	1.499937083291805e-05
	1.424568467343203e-06
	4.021681771258147e-01

 24	2.400000000000001e-01
	-3.997142791094789e-15
	1.161745462382420e-18
	-6.844727247224741e-15
	4.184447730222046e-07
	1.662876612632170e-05
	1.582570269349402e-06
	4.021681892512941e-01

 25	2.500000000000001e-01
	-3.953997746838959e-15
	1.161576746210304e-18
	-6.969469455192190e-15
	4.626842102804318e-07
	1.843243140720263e-05
	1.757722365924929e-06
	4.021682027032213e-01

 26	2.600000000000001e-01
	-3.911446108135961e-15
	1.160658603181851e-18
	-7.094038572615898e-15
	5.112938458574399e-07
	2.042908920856413e-05
	1.951859380266069e-06
	4.021682176256789e-01

 27	2.700000000000001e-01
	-3.869505340936093e-15
	1.158984777534479e-18
	-7.218358032929888e-15
	5.646590069121548e-07
	2.263954342701437e-05
	2.167013367839801e-06
	4.021682341786973e-01

 28	2.800000000000001e-01
	-3.828192167840296e-15
	1.156550141223133e-18
	-7.342352052806090e-15
	6.231922996021188e-07
	2.508691831785909e-05
	2.405435802327614e-06
	4.021682525400989e-01

 29	2.900000000000001e-01
	-3.787522525894828e-15
	1.153350692592119e-18
	-7.465945802898767e-15
	6.873346101310500e-07
	2.779692250945240e-05
	2.669622074900286e-06
	4.021682729075883e-01

 30	3.000000000000001e-01
	-3.747511527894592e-15
	1.149383550535529e-18
	-7.589065573548083e-15
	7.575560093763646e-07
	3.079813928939476e-05
	2.962338763415030e-06
	4.021682955010756e-01

 31	3.100000000000001e-01
	-3.708173427330502e-15
	1.144646944230339e-18
	-7.711638934719486e-15
	8.343565384643910e-07
	3.412234403827597e-05
	3.286653938847726e-06
	4.021683205652962e-01

 32	3.200000000000001e-01
	-3.669521587091676e-15
	1.139140198552735e-18
	-7.833594889501804e-15
	9.182668510801636e-07
	3.780484916732301e-05
	3.645970782528399e-06
	4.021683483727188e-01

 33	3.300000000000001e-01
	-3.631568452007748e-15
	1.132863715316206e-18
	-7.954864020536799e-15
	1.009848686902868e-06
	4.188487623238782e-05
	4.044064787995650e-06
	4.021683792267975e-01

 34	3.400000000000001e-01
	-3.594325525291082e-15
	1.125818950494467e-18
	-8.075378628807576e-15
	1.109695149411057e-06
	4.640595402696089e-05
	4.485124813775341e-06
	4.021684134656005e-01

 35	3.500000000000001e-01
	-3.557803348913075e-15
	1.118008387614772e-18
	-8.195072864271464e-15
	1.218430760471109e-06
	5.141634038222307e-05
	4.973798236162118e-06
	4.021684514658158e-01

 36	3.600000000000002e-01
	-3.522011487923451e-15
	1.109435507529695e-18
	-8.313882847883172e-15
	1.336711263679560e-06
	5.696946410727957e-05
	5.515240422003948e-06
	4.021684936472102e-01

 37	3.700000000000002e-01
	-3.486958518696718e-15
	1.100104754792552e-18
	-8.431746784617903e-15
	1.465223148451949e-06
	6.312438197836002e-05
	6.115168698313589e-06
	4.021685404775149e-01

 38	3.800000000000002e-01
	-3.452652021065877e-15
	1.090021500879834e-18
	-8.548605067167758e-15
	1.604682867411328e-06
	6.994624393053877e-05
	6.779920935933817e-06
	4.021685924778070e-01

 39	3.900000000000002e-01
	-3.419098574280441e-15
	1.079192004516712e-18
	-8.664400370051013e-15
	1.755835720806039e-06
	7.750675762888166e-05
	7.516518786204386e-06
	4.021686502283804e-01

 40	4.000000000000002e-01
	-3.386303756703899e-15
	1.067623369374270e-18
	-8.779077733938989e-15
	1.919454383547821e-06
	8.588464142035504e-05
	8.332735510495076e-06
	4.021687143751463e-01

 41	4.100000000000002e-01
	-3.354272149145063e-15
	1.055323499413702e-18
	-8.892584640071561e-15
	2.096337053073569e-06
	9.516605233187035e-05
	9.237168220780255e-06
	4.021687856365003e-01

 42	4.200000000000002e-01
	-3.323007341698899e-15
	1.042301052163141e-18
	-9.004871074694797e-15
	2.287305199644629e-06
	1.054449733400138e-04
	1.023931420377769e-05
	4.021688648107553e-01

 43	4.300000000000002e-01
	-3.292511943954594e-15
	1.028565390211108e-18
	-9.115889583519198e-15
	2.493200904951871e-06
	1.168235416717496e-04
	1.134965083093056e-05
	4.021689527840164e-01

 44	4.400000000000002e-01
	-3.262787598413211e-15
	1.014126531205927e-18
	-9.225595316255870e-15
	2.714883779999439e-06
	1.294122975010336e-04
	1.257971836184144e-05
	4.021690505385180e-01

 45	4.500000000000002e-01
	-3.233834996943075e-15
	9.989950966469673e-19
	-9.333946061346492e-15
	2.953227459196803e-06
	1.433303302050596e-04
	1.394220473102471e-05
	4.021691591613527e-01

 46	4.600000000000002e-01
	-3.205653900089198e-15
	9.831822597500732e-19
	-9.440902271057771e-15
	3.209115674355278e-06
	1.587052974776629e-04
	1.545103116963910e-05
	4.021692798535062e-01

 47	4.700000000000003e-01
	-3.178243159042700e-15
	9.666996926640022e-19
	-9.546427077162143e-15
	3.483437919794621e-06
	1.756732912270471e-04
	1.712143725935390e-05
	4.021694139391038e-01

 48	4.800000000000003e-01
	-3.151600740068249e-15
	9.495595133063240e-19
	-9.650486297473726e-15
	3.777084727910990e-06
	1.943785234855110e-04
	1.897006375053307e-05
	4.021695628747357e-01

 49	4.900000000000003e-01
	-3.125723751180901e-15
	9.317742320769914e-19
	-9.753048433552313e-15
	4.090942583195251e-06
	2.149728057129732e-04
	2.101503120912656e-05
	4.021697282586814e-01

 50	5.000000000000002e-01
	-3.100608470859746e-15
	9.133566986970997e-19
	-9.854084659925879e-15
	4.425888511635200e-06
	2.376147960653832e-04
	2.327601229550465e-05
	4.021699118398755e-01

 51	5.100000000000002e-01
	-3.076250378582864e-15
	8.943200494062682e-19
	-9.953568805217472e-15
	4.782784391467108e-06
	2.624689915932387e-04
	2.577429523521619e-05
	4.021701155263609e-01

 52	5.200000000000002e-01
	-3.052644186967533e-15
	8.746776547385454e-19
	-1.005147732559088e-14
	5.162471040101970e-06
	2.897044460785740e-04
	2.853283582909829e-05
	4.021703413929954e-01

 53	5.300000000000002e-01
	-3.029783875300453e-15
	8.544430680807802e-19
	-1.014778927095491e-14
	5.565762140456965e-06
	3.194931994158408e-04
	3.157629518241922e-05
	4.021705916881080e-01

 54	5.400000000000003e-01
	-3.007662724245333e-15
	8.336299752022551e-19
	-1.024248624438537e-14
	5.993438077565630e-06
	3.520084111425493e-04
	3.493106022463798e-05
	4.021708688388220e-01

 55	5.500000000000003e-01
	-2.986273351518973e-15
	8.122521449272308e-19
	-1.033555235524016e-14
	6.446239762911328e-06
	3.874221989092541e-04
	3.862524405796743e-05
	4.021711754546944e-01

 56	5.600000000000003e-01
	-2.965607748332521e-15
	7.903233811057980e-19
	-1.042697416645245e-14
	6.924862529116252e-06
	4.259031922410546e-04
	4.268866322860326e-05
	4.021715143293479e-01

 57	5.700000000000003e-01
	-2.945657316400829e-15
	7.678574760214221e-19
	-1.051674063649466e-14
	7.429950181138611e-06
	4.676138226857593e-04
	4.715278917213747e-05
	4.021718884397364e-01

 58	5.800000000000003e-01
	-2.926412905330696e-15
	7.448681653579143e-19
	-1.060484305650702e-14
	7.962089291733586e-06
	5.127073830675713e-04
	5.205067135467378e-05
	4.021723009427243e-01

 59	5.900000000000003e-01
	-2.907864850206921e-15
	7.213690848320707e-19
	-1.069127498308379e-14
	8.521803828426412e-06
	5.613249006689889e-04
	5.741683002037746e-05
	4.021727551686650e-01

 60	6.000000000000003e-01
	-2.890003009204710e-15
	6.973737285830867e-19
	-1.077603216720481e-14
	9.109550196506707e-06
	6.135918812524334e-04
	6.328711696697179e-05
	4.021732546116847e-01

 61	6.100000000000003e-01
	-2.872816801066574e-15
	6.728954093962047e-19
	-1.085911247979157e-14
	9.725712777540615e-06
	6.696149923322661e-04
	6.969854339996565e-05
	4.021738029164827e-01

 62	6.200000000000003e-01
	-2.856295242292335e-15
	6.479472208229891e-19
	-1.094051583435626e-14
	1.037060003567631e-05
	7.294787643879169e-04
	7.668907465513326e-05
	4.021744038614371e-01

 63	6.300000000000003e-01
	-2.840426983901619e-15
	6.225420012508935e-19
	-1.102024410719817e-14
	1.104444125473151e-05
	7.932423971148689e-04
	8.429739241124717e-05
	4.021750613380103e-01

 64	6.400000000000003e-01
	-2.825200347638914e-15
	5.966922999597982e-19
	-1.109830105558679e-14
	1.174738395797257e-05
	8.609367637052483e-04
	9.256262591939886e-05
	4.021757793264047e-01

 65	6.500000000000004e-01
	-2.810603361502523e-15
	5.704103451964363e-19
	-1.117469223435308e-14
	1.247949204994624e-05
	9.325617089522100e-04
	1.015240547229475e-04
	4.021765618676552e-01

 66	6.600000000000004e-01
	-2.796623794489518e-15
	5.437080142852129e-19
	-1.124942491129212e-14
	1.324074470615087e-05
	1.008083736209639e-03
	1.112207862999280e-04
	4.021774130323618e-01

 67	6.700000000000004e-01
	-2.783249190459821e-15
	5.165968057872976e-19
	-1.132250798176068e-14
	1.403103602219261e-05
	1.087434173583955e-03
	1.216914129898555e-04
	4.021783368864527e-01

 68	6.800000000000004e-01
	-2.770466901033005e-15
	4.890878137101512e-19
	-1.139395188283316e-14
	1.485017541988490e-05
	1.170507901051706e-03
	1.329736534295644e-04
	4.021793374544177e-01

 69	6.900000000000004e-01
	-2.758264117442026e-15
	4.611917037644196e-19
	-1.146376850735848e-14
	1.569788879401048e-05
	1.257162707563397e-03
	1.451039844777239e-04
	4.021804186806441e-01

 70	7.000000000000004e-01
	-2.746627901277960e-15
	4.329186916554741e-19
	-1.153197111824014e-14
	1.657382037066996e-05
	1.347219330923086e-03
	1.581172702170159e-04
	4.021815843894901e-01

 71	7.100000000000004e-01
	-2.735545214069745e-15
	4.042785233928358e-19
	-1.159857426324034e-14
	1.747753523668897e-05
	1.440462213865482e-03
	1.720463950526024e-04
	4.021828382449014e-01

 72	7.200000000000004e-01
	-2.725002945651758e-15
	3.752804575909996e-19
	-1.166359369058960e-14
	1.840852248980664e-05
	1.536640988044214e-03
	1.869219081484699e-04
	4.021841837103362e-01

 73	7.300000000000004e-01
	-2.714987941281508e-15
	3.459332497310403e-19
	-1.172704626566160e-14
	1.936619895153526e-05
	1.635472674525496e-03
	2.027716864405349e-04
	4.021856240098849e-01

 74	7.400000000000004e-01
	-2.705487027477670e-15
	3.162451383440858e-19
	-1.178894988895398e-14
	2.034991337880608e-05
	1.736644565906944e-03
	2.196206232286016e-04
	4.021871620914147e-01

 75	7.500000000000004e-01
	-2.696487036556796e-15
	2.862238330702414e-19
	-1.184932341559581e-14
	2.135895110679521e-05
	1.839817732464421e-03
	2.374903488804870e-04
	4.021888005925391e-01

 76	7.600000000000005e-01
	-2.687974829854541e-15
	2.558765045408267e-19
	-1.190818657658299e-14
	2.239253905356100e-05
	1.944631073872019e-03
	2.563989894943080e-04
	4.021905418101952e-01

 77	7.700000000000005e-01
	-2.679937319624393e-15
	2.252097760230932e-19
	-1.196555990192384e-14
	2.344985101713138e-05
	2.050705820057732e-03
	2.763609684832235e-04
	4.021923876744754e-01

 78	7.800000000000005e-01
	-2.672361489613214e-15
	1.942297167600293e-19
	-1.202146464585819e-14
	2.453001319719099e-05
	2.157650370511396e-03
	2.973868550042125e-04
	4.021943397272776e-01

 79	7.900000000000005e-01
	-2.665234414319499e-15
	1.629418369310952e-19
	-1.207592271429498e-14
	2.563210987622952e-05
	2.265065351503961e-03
	3.194832619898482e-04
	4.021963991062232e-01

 80	8.000000000000005e-01
	-2.658543276945423e-15
	1.313510841521670e-19
	-1.212895659459508e-14
	2.675518919860578e-05
	2.372548765608810e-03
	3.426527953058595e-04
	4.021985665340924e-01

 81	8.100000000000005e-01
	-2.652275386059681e-15
	9.946184142791756e-20
	-1.218058928780749e-14
	2.789826899013666e-05
	2.479701107762876e-03
	3.668940542961588e-04
	4.022008423139602e-01

 82	8.200000000000005e-01
	-2.646418190992402e-15
	6.727792646361744e-20
	-1.223084424345034e-14
	2.906034256526725e-05
	2.586130326723758e-03
	3.922016827399768e-04
	4.022032263299852e-01

 83	8.300000000000005e-01
	-2.640959295988161e-15
	3.480259223938119e-20
	-1.227974529691002e-14
	3.024038447337710e-05
	2.691456519767993e-03
	4.185664680782262e-04
	4.022057180537204e-01

 84	8.400000000000005e-01
	-2.635886473147021e-15
	2.038528745859842e-21
	-1.232731660951531e-14
	3.143735614016750e-05
	2.795316261221224e-03
	4.459754857092152e-04
	4.022083165556484e-01

 85	8.500000000000005e-01
	-2.631187674187108e-15
	-3.101213422127016e-20
	-1.237358261132673e-14
	3.265021136424005e-05
	2.897366481132192e-03
	4.744122842406165e-04
	4.022110205215370e-01

 86	8.600000000000005e-01
	-2.626851041065265e-15
	-6.434782331261423e-20
	-1.241856794666622e-14
	3.387790163287433e-05
	2.997287828214492e-03
	5.038571068405007e-04
	4.022138282731232e-01

 87	8.700000000000006e-01
	-2.622864915495036e-15
	-9.796751702702873e-20
	-1.246229742239673e-14
	3.511938122465034e-05
	3.094787470154676e-03
	5.342871432712414e-04
	4.022167377925284e-01

 88	8.800000000000006e-01
	-2.619217847403734e-15
	-1.318707403666378e-19
	-1.250479595894738e-14
	3.637361206996597e-05
	3.189601303610660e-03
	5.656768068227146e-04
	4.022197467497954e-01

 89	8.900000000000006e-01
	-2.615898602371733e-15
	-1.660575588468196e-19
	-1.254608854406706e-14
	3.763956834376081e-05
	3.281495564861570e-03
	5.979980301838480e-04
	4.022228525328765e-01

 90	9.000000000000006e-01
	-2.612896168099047e-15
	-2.005285719589366e-19
	-1.258620018927665e-14
	3.891624076792856e-05
	3.370267849389296e-03
	6.312205742938509e-04
	4.022260522794086e-01

 91	9.100000000000006e-01
	-2.610199759944997e-15
	-2.352849061802520e-19
	-1.262515588897962e-14
	4.020264060407289e-05
	3.455747564089938e-03
	6.653123443804373e-04
	4.022293429096077e-01

 92	9.200000000000006e-01
	-2.607798825587683e-15
	-2.703282076196387e-19
	-1.266298058218026e-14
	4.149780332047930e-05
	3.537795848902609e-03
	7.002397077001535e-04
	4.022327211596852e-01

 93	9.300000000000006e-01
	-2.605683048850083e-15
	-3.056606343844020e-19
	-1.269969911675072e-14
	4.280079192049447e-05
	3.616305015143722e-03
	7.359678079212725e-04
	4.022361836151681e-01

 94	9.400000000000006e-01
	-2.603842352739874e-15
	-3.412848487460877e-19
	-1.273533621617994e-14
	4.411069992292021e-05
	3.691197555638445e-03
	7.724608716054731e-04
	4.022397267436238e-01

 95	9.500000000000006e-01
	-2.602266901749648e-15
	-3.772040091778190e-19
	-1.276991644873143e-14
	4.542665398854224e-05
	3.762424786883319e-03
	8.096825028242442e-04
	4.022433469263237e-01

 96	9.600000000000006e-01
	-2.600947103463695e-15
	-4.134217623310119e-19
	-1.280346419893172e-14
	4.674781619049018e-05
	3.829965186105231e-03
	8.475959625636284e-04
	4.022470404884367e-01

 97	9.700000000000006e-01
	-2.599873609516743e-15
	-4.499422350109801e-19
	-1.283600364130662e-14
	4.807338592969834e-05
	3.893822486444225e-03
	8.861644302024422e-04
	4.022508037274549e-01

 98	9.800000000000006e-01
	-2.599037315949142e-15
	-4.867700262078397e-19
	-1.286755871627964e-14
	4.940260150026129e-05
	3.954023591888225e-03
	9.253512449739014e-04
	4.022546329395696e-01

 99	9.900000000000007e-01
	-2.598429363001701e-15
	-5.239101992309305e-19
	-1.289815310814449e-14
	5.073474131285975e-05
	4.010616370368867e-03
	9.651201259201975e-04
	4.022585244438421e-01

 100	1.000000000000001e+00
	-2.598041134392208e-15
	-5.613682739920849e-19
	-1.292781022502197e-14
	5.206912478761639e-05
	4.063667378948497e-03
	1.005435369410385e-03
	4.022624746040281e-01

 101	1.010000000000001e+00
	-2.597864256114209e-15
	-5.991502194759632e-19
	-1.295655318071107e-14
	5.340511293064535e-05
	4.113259569638536e-03
	1.046262023802692e-03
	4.022664798480031e-01

 102	1.020000000000001e+00
	-2.597890594797017e-15
	-6.372624464329833e-19
	-1.298440477834410e-14
	5.474210861113637e-05
	4.159490018418734e-03
	1.087566041286130e-03
	4.022705366847721e-01

 103	1.030000000000001e+00
	-2.598112255664531e-15
	-6.757118003244632e-19
	-1.301138749575571e-14
	5.607955655800503e-05
	4.202467713769632e-03
	1.129314407328510e-03
	4.022746417191018e-01

 104	1.040000000000001e+00
	-2.598521580128625e-15
	-7.145055545470237e-19
	-1.303752347247758e-14
	5.741694309692927e-05
	4.242311434741008e-03
	1.171475248487565e-03
	4.022787916638408e-01

 105	1.050000000000001e+00
	-2.599111143051302e-15
	-7.536514039597299e-19
	-1.306283449827122e-14
	5.875379564994424e-05
	4.279147742466008e-03
	1.214017919609203e-03
	4.022829833500280e-01

 106	1.060000000000001e+00
	-2.599873749708133e-15
	-7.931574587329782e-19
	-1.308734200311357e-14
	6.008968202069563e-05
	4.313109103257460e-03
	1.256913071645109e-03
	4.022872137349290e-01

 107	1.070000000000001e+00
	-2.600802432483764e-15
	-8.330322385378789e-19
	-1.311106704855218e-14
	6.142420948895799e-05
	4.344332156110418e-03
	1.300132701474636e-03
	4.022914799081201e-01

 108	1.080000000000001e+00
	-2.601890447328736e-15
	-8.732846670900574e-19
	-1.313403032034881e-14
	6.275702373813603e-05
	4.372956132662826e-03
	1.343650185218516e-03
	4.022957790957998e-01

 109	1.090000000000001e+00
	-2.603131270004994e-15
	-9.139240670615619e-19
	-1.315625212233328e-14
	6.408780763921585e-05
	4.399121433480552e-03
	1.387440296589904e-03
	4.023001086634636e-01

 110	1.100000000000001e+00
	-2.604518592146174e-15
	-9.549601553711814e-19
	-1.317775237139157e-14
	6.541627991405219e-05
	4.422968360949733e-03
	1.431479211847461e-03
	4.023044661171432e-01

 111	1.110000000000001e+00
	-2.606046317156869e-15
	-9.964030388636820e-19
	-1.319855059351515e-14
	6.674219370003115e-05
	4.444636006070982e-03
	1.475744502902208e-03
	4.023088491033295e-01

 112	1.120000000000001e+00
	-2.607708555973760e-15
	-1.038263210385424e-18
	-1.321866592084137e-14
	6.806533503704796e-05
	4.464261284029358e-03
	1.520215120089412e-03
	4.023132554077766e-01

 113	1.130000000000001e+00
	-2.609499622709970e-15
	-1.080551545263197e-18
	-1.323811708961734e-14
	6.938552129646997e-05
	4.481978111522884e-03
	1.564871366055516e-03
	4.023176829533342e-01

 114	1.140000000000001e+00
	-2.611414030202469e-15
	-1.123279298193227e-18
	-1.325692243902293e-14
	7.070259957034152e-05
	4.497916717421403e-03
	1.609694862132406e-03
	4.023221297969297e-01

 115	1.150000000000001e+00
	-2.613446485481233e-15
	-1.166458100544419e-18
	-1.327509991079065e-14
	7.201644503756680e-05
	4.512203077342224e-03
	1.654668508481472e-03
	4.023265941258753e-01

 116	1.160000000000001e+00
	-2.615591885177137e-15
	-1.210099958081100e-18
	-1.329266704956412e-14
	7.332695932224548e-05
	4.524958462115516e-03
	1.699776439192731e-03
	4.023310742535912e-01

 117	1.170000000000001e+00
	-2.617845310884885e-15
	-1.254217249108256e-18
	-1.330964100393815e-14
	7.463406885773937e-05
	4.536299089812695e-03
	1.745003973422264e-03
	4.023355686148966e-01

 118	1.180000000000001e+00
	-2.620202024495353e-15
	-1.298822723043607e-18
	-1.332603852812752e-14
	7.593772326847086e-05
	4.546335870974331e-03
	1.790337563547880e-03
	4.023400757609312e-01

 119	1.190000000000001e+00
	-2.622657463511315e-15
	-1.343929499418110e-18
	-1.334187598421317e-14
	7.723789377990528e-05
	4.555174236848374e-03
	1.835764741220095e-03
	4.023445943538412e-01

 120	1.200000000000001e+00
	-2.625207236358828e-15
	-1.389551067308432e-18
	-1.335716934491768e-14
	7.853457166568311e-05
	4.562914040791607e-03
	1.881274062085617e-03
	4.023491231612941e-01

 121	1.210000000000001e+00
	-2.627847117705866e-15
	-1.435701285203123e-18
	-1.337193419686420e-14
	7.982776673945621e-05
	4.569649523455336e-03
	1.926855049864580e-03
	4.023536610508922e-01

 122	1.220000000000001e+00
	-2.630573043798701e-15
	-1.482394381304144e-18
	-1.338618574427535e-14
	8.111750589765095e-05
	4.575469332935448e-03
	1.972498140371897e-03
	4.023582069845620e-01

 123	1.230000000000001e+00
	-2.633381107825520e-15
	-1.529644954266549e-18
	-1.339993881307140e-14
	8.240383171815889e-05
	4.580456591687660e-03
	2.018194625988482e-03
	4.023627600129570e-01

 124	1.240000000000001e+00
	-2.636267555316150e-15
	-1.577467974376070e-18
	-1.341320785532850e-14
	8.368680111881731e-05
	4.584689002664151e-03
	2.063936601009303e-03
	4.023673192699498e-01

 125	1.250000000000001e+00
	-2.639228779585468e-15
	-1.625878785168489e-18
	-1.342600695406092e-14
	8.496648407853110e-05
	4.588238987798742e-03
	2.109716908223904e-03
	4.023718839672112e-01

 126	1.260000000000001e+00
	-2.642261317227869e-15
	-1.674893105490585e-18
	-1.343834982829251e-14
	8.624296242295567e-05
	4.591173852635426e-03
	2.155529087019395e-03
	4.023764533889406e-01

 127	1.270000000000001e+00
	-2.645361843668944e-15
	-1.724527032003977e-18
	-1.345024983838537e-14
	8.751632867585103e-05
	4.593555971547859e-03
	2.201367323237671e-03
	4.023810268867735e-01

 128	1.280000000000001e+00
	-2.648527168780020e-15
	-1.774797042135092e-18
	-1.346171999159494e-14
	8.878668497650393e-05
	4.595442988624865e-03
	2.247226400966614e-03
	4.023856038748452e-01

 129	1.290000000000001e+00
	-2.651754232560775e-15
	-1.825719997470385e-18
	-1.347277294782332e-14
	9.005414206297964e-05
	4.596888029890515e-03
	2.293101656398441e-03
	4.023901838251007e-01

 130	1.300000000000001e+00
	-2.655040100894005e-15
	-1.877313147600633e-18
	-1.348342102554383e-14
	9.131881832044906e-05
	4.597939923084752e-03
	2.338988933848815e-03
	4.023947662627706e-01

 131	1.310000000000001e+00
	-2.658381961376658e-15
	-1.929594134414241e-18
	-1.349367620787222e-14
	9.258083889336933e-05
	4.598643421745061e-03
	2.384884543994580e-03
	4.023993507621039e-01

 132	1.320000000000001e+00
	-2.661777119230320e-15
	-1.982580996842478e-18
	-1.350355014876065e-14
	9.384033485993463e-05
	4.599039430803340e-03
	2.430785224358550e-03
	4.024039369423058e-01

 133	1.330000000000001e+00
	-2.665222993293966e-15
	-2.036292176058353e-18
	-1.351305417929324e-14
	9.509744246690321e-05
	4.599165231342190e-03
	2.476688102043921e-03
	4.024085244637053e-01

 134	1.340000000000001e+00
	-2.668717112101417e-15
	-2.090746521131351e-18
	-1.352219931406253e-14
	9.635230242266231e-05
	4.599054702542877e-03
	2.522590658699388e-03
	4.024131130241490e-01

 135	1.350000000000001e+00
	-2.672257110045349e-15
	-2.145963295139926e-18
	-1.353099625760841e-14
	9.760505924621286e-05
	4.598738539205018e-03
	2.568490697678427e-03
	4.024177023556174e-01

 136	1.360000000000001e+00
	-2.675840723629472e-15
	-2.201962181746034e-18
	-1.353945541090171e-14
	9.885586066961555e-05
	4.598244463526715e-03
	2.614386313341548e-03
	4.024222922210459e-01

 137	1.370000000000001e+00
	-2.679465787810104e-15
	-2.258763292232452e-18
	-1.354758687785666e-14
	1.001048570913412e-04
	4.597597430106063e-03
	2.660275862438461e-03
	4.024268824113815e-01

 138	1.380000000000001e+00
	-2.683130232427845e-15
	-2.316387173008440e-18
	-1.355540047185717e-14
	1.013522010779311e-04
	4.596819823364153e-03
	2.706157937498613e-03
	4.024314727428089e-01

 139	1.390000000000001e+00
	-2.686832078730178e-15
	-2.374854813585154e-18
	-1.356290572228302e-14
	1.025980469113226e-04
	4.595931646796006e-03
	2.752031342150660e-03
	4.024360630542095e-01

 140	1.400000000000001e+00
	-2.690569435984948e-15
	-2.434187655027061e-18
	-1.357011188102381e-14
	1.038425501792337e-04
	4.594950703635892e-03
	2.797895068287636e-03
	4.024406532047795e-01

 141	1.410000000000001e+00
	-2.694340498185046e-15
	-2.494407598881770e-18
	-1.357702792896864e-14
	1.050858674059979e-04
	4.593892768675558e-03
	2.843748274990190e-03
	4.024452430718425e-01

 142	1.420000000000001e+00
	-2.698143540843883e-15
	-2.555537016593811e-18
	-1.358366258246113e-14
	1.063281557213117e-04
	4.592771751104169e-03
	2.889590269119064e-03
	4.024498325488292e-01

 143	1.430000000000001e+00
	-2.701976917881351e-15
	-2.617598759408164e-18
	-1.359002429971015e-14
	1.075695725644093e-04
	4.591599848347647e-03
	2.935420487486910e-03
	4.024544215434193e-01

 144	1.440000000000001e+00
	-2.705839058599579e-15
	-2.680616168767754e-18
	-1.359612128714751e-14
	1.088102754212585e-04
	4.590387690975626e-03
	2.981238480519906e-03
	4.024590099758334e-01

 145	1.450000000000001e+00
	-2.709728464747783e-15
	-2.744613087212403e-18
	-1.360196150572458e-14
	1.100504215924596e-04
	4.589144478818449e-03
	3.027043897320648e-03
	4.024635977772716e-01

 146	1.460000000000001e+00
	-2.713643707675209e-15
	-2.809613869784790e-18
	-1.360755267714080e-14
	1.112901679896215e-04
	4.587878108496720e-03
	3.072836472045632e-03
	4.024681848884874e-01

 147	1.470000000000001e+00
	-2.717583425571134e-15
	-2.875643395951199e-18
	-1.361290228999754e-14
	1.125296709580885e-04
	4.586595292613397e-03
	3.118616011512803e-03
	4.024727712584882e-01

 148	1.480000000000001e+00
	-2.721546320790733e-15
	-2.942727082043987e-18
	-1.361801760587170e-14
	1.137690861239946e-04
	4.585301670895088e-03
	3.164382383957413e-03
	4.024773568433510e-01

 149	1.490000000000001e+00
	-2.725531157265404e-15
	-3.010890894235084e-18
	-1.362290566530391e-14
	1.150085682637271e-04
	4.584001913596814e-03
	3.210135508857459e-03
	4.024819416051468e-01

 150	1.500000000000001e+00
	-2.729536757996424e-15
	-3.080161362047797e-18
	-1.362757329369669e-14
	1.162482711939819e-04
	4.582699817503751e-03
	3.255875347753040e-03
	4.024865255109821e-01

 151	1.510000000000001e+00
	-2.733562002630072e-15
	-3.150565592417300e-18
	-1.363202710711891e-14
	1.174883476807049e-04
	4.581398394876583e-03
	3.301601895987674e-03
	4.024911085321167e-01

 152	1.520000000000001e+00
	-2.737605825112988e-15
	-3.222131284309733e-18
	-1.363627351801301e-14
	1.187289493653121e-04
	4.580099955693849e-03
	3.347315175302848e-03
	4.024956906431792e-01

 153	1.530000000000001e+00
	-2.741667211425984e-15
	-3.294886743909931e-18
	-1.364031874080194e-14
	1.199702267066802e-04
	4.578806183547239e-03
	3.393015227220737e-03
	4.025002718214645e-01
