Title: ** sch_path: /home/andylithia/openmpw/project-yatsuhashi-chip1/xschem/gmid_test/nmos_test.sch
Date: Sun Jul 17 22:51:45  2022
Plotname: DC transfer characteristic
Flags: real
No. Variables: 8
No. Points: 181
Variables:
	0	v(v-sweep)	voltage
	1	@m.xm1.msky130_fd_pr__nfet_01v8[cgb]	capacitance
	2	@m.xm1.msky130_fd_pr__nfet_01v8[cgd]	capacitance
	3	@m.xm1.msky130_fd_pr__nfet_01v8[cgs]	capacitance
	4	@m.xm1.msky130_fd_pr__nfet_01v8[gds]	admittance
	5	@m.xm1.msky130_fd_pr__nfet_01v8[gm]	admittance
	6	i(@m.xm1.msky130_fd_pr__nfet_01v8[id])	current
	7	v(@m.xm1.msky130_fd_pr__nfet_01v8[vth])	voltage
Values:
 0	0.000000000000000e+00
	-6.007028215294867e-15
	-1.429897612796638e-18
	-8.057419277510139e-15
	6.199785100396618e-09
	2.465703360534236e-07
	2.507268724377900e-08
	2.767977811068519e-01

 1	1.000000000000000e-02
	-5.936274008558942e-15
	-1.475235211559739e-18
	-8.218222466065084e-15
	6.824518979439137e-09
	2.717217213041811e-07
	2.766212523189564e-08
	2.767977814059687e-01

 2	2.000000000000000e-02
	-5.866026997735020e-15
	-1.521991019339390e-18
	-8.379730081375293e-15
	7.509768710364406e-09
	2.994222092129469e-07
	3.051561522718868e-08
	2.767977817355868e-01

 3	3.000000000000000e-02
	-5.796312889581053e-15
	-1.570208422957791e-18
	-8.541861243554317e-15
	8.261044715221212e-09
	3.299337685077285e-07
	3.365993573785341e-08
	2.767977820988028e-01

 4	4.000000000000000e-02
	-5.727157270099460e-15
	-1.619932139409535e-18
	-8.704534053537116e-15
	9.084310507344778e-09
	3.635467458894196e-07
	3.712462420605214e-08
	2.767977824990245e-01

 5	5.000000000000000e-02
	-5.658585539144780e-15
	-1.671208260058998e-18
	-8.867665748651632e-15
	9.986013532562121e-09
	4.005832350584394e-07
	4.094227729270857e-08
	2.767977829400201e-01

 6	6.000000000000000e-02
	-5.590622845812911e-15
	-1.724084296548810e-18
	-9.031172861139570e-15
	1.097311730752760e-08
	4.414008787069655e-07
	4.514888697408389e-08
	2.767977834259475e-01

 7	7.000000000000001e-02
	-5.523294024859801e-15
	-1.778609228494274e-18
	-9.194971379019112e-15
	1.205313481112267e-08
	4.863971579402770e-07
	4.978421704766999e-08
	2.767977839613989e-01

 8	8.000000000000000e-02
	-5.456623534393435e-15
	-1.834833553040479e-18
	-9.358976908668472e-15
	1.323416307033092e-08
	5.360142289492693e-07
	5.489222521624730e-08
	2.767977845514530e-01

 9	9.000000000000000e-02
	-5.390635395077166e-15
	-1.892809336365084e-18
	-9.523104838498438e-15
	1.452491886645308e-08
	5.907443721984990e-07
	6.052153654436428e-08
	2.767977852017294e-01

 10	9.999999999999999e-02
	-5.325353131074949e-15
	-1.952590267211149e-18
	-9.687270503076157e-15
	1.593477547102346e-08
	6.511361247953619e-07
	6.672597476122607e-08
	2.767977859184425e-01

 11	1.100000000000000e-01
	-5.260799712960536e-15
	-2.014231712539585e-18
	-9.851389347058550e-15
	1.747380030345364e-08
	7.178011719078778e-07
	7.356515861685912e-08
	2.767977867084822e-01

 12	1.200000000000000e-01
	-5.196997502801924e-15
	-2.077790775394830e-18
	-1.001537708829739e-14
	1.915279338438481e-08
	7.914220779055666e-07
	8.110517128156852e-08
	2.767977875794829e-01

 13	1.300000000000000e-01
	-5.133968201620998e-15
	-2.143326355081360e-18
	-1.017914987948232e-14
	2.098332644012699e-08
	8.727609420716596e-07
	8.941931160690291e-08
	2.767977885399115e-01

 14	1.400000000000000e-01
	-5.071732799415159e-15
	-2.210899209753476e-18
	-1.034262446769862e-14
	2.297778249459135e-08
	9.626690669944170e-07
	9.858893693200596e-08
	2.767977895991671e-01

 15	1.500000000000000e-01
	-5.010311527913467e-15
	-2.280572021525706e-18
	-1.050571835129068e-14
	2.514939576598316e-08
	1.062097729761311e-06
	1.087044080115518e-07
	2.767977907676903e-01

 16	1.600000000000000e-01
	-4.949723816224849e-15
	-2.352409464215816e-18
	-1.066834993343962e-14
	2.751229166643164e-08
	1.172110146475365e-06
	1.198661475461544e-07
	2.767977920570830e-01

 17	1.700000000000000e-01
	-4.889988249519488e-15
	-2.426478273838063e-18
	-1.083043867188479e-14
	3.008152668395633e-08
	1.293894718963690e-06
	1.321858246949341e-07
	2.767977934802469e-01

 18	1.800000000000000e-01
	-4.831122530867805e-15
	-2.502847321969760e-18
	-1.099190522424445e-14
	3.287312790794273e-08
	1.428779648384553e-06
	1.457876788200602e-07
	2.767977950515362e-01

 19	1.900000000000000e-01
	-4.773143446343685e-15
	-2.581587692119740e-18
	-1.115267158841885e-14
	3.590413194194421e-08
	1.578248993250866e-06
	1.608099965268930e-07
	2.767977967869252e-01

 20	2.000000000000000e-01
	-4.716066833480780e-15
	-2.662772759234127e-18
	-1.131266123758985e-14
	3.919262293137401e-08
	1.743960238631531e-06
	1.774067567878269e-07
	2.767977987042090e-01

 21	2.100000000000000e-01
	-4.659907553151775e-15
	-2.746478272480290e-18
	-1.147179924936691e-14
	4.275776941889027e-08
	1.927763428404570e-06
	1.957494595347908e-07
	2.767978008232014e-01

 22	2.200000000000001e-01
	-4.604679464922796e-15
	-2.832782441457579e-18
	-1.163001242866292e-14
	4.661985972721146e-08
	2.131721892843005e-06
	2.160291535300473e-07
	2.767978031659723e-01

 23	2.300000000000001e-01
	-4.550395405915580e-15
	-2.921766025989363e-18
	-1.178722942392473e-14
	5.080033555815046e-08
	2.358134578960259e-06
	2.384586795280121e-07
	2.767978057571183e-01

 24	2.400000000000001e-01
	-4.497067173192120e-15
	-3.013512429659636e-18
	-1.194338083638210e-14
	5.532182348808022e-08
	2.609559960400823e-06
	2.632751446667549e-07
	2.767978086240373e-01

 25	2.500000000000001e-01
	-4.444705509658151e-15
	-3.108107797264389e-18
	-1.209839932202031e-14
	6.020816403416413e-08
	2.888841466773605e-06
	2.907426436163378e-07
	2.767978117972405e-01

 26	2.600000000000001e-01
	-4.393320093463889e-15
	-3.205641116355895e-18
	-1.225221968602509e-14
	6.548443796285735e-08
	3.199134328828125e-06
	3.211552411980339e-07
	2.767978153107091e-01

 27	2.700000000000001e-01
	-4.342919530863328e-15
	-3.306204323067822e-18
	-1.240477896949156e-14
	7.117698951270706e-08
	3.543933685537458e-06
	3.548402299063122e-07
	2.767978192022621e-01

 28	2.800000000000001e-01
	-4.293511352476662e-15
	-3.409892412417341e-18
	-1.255601652823256e-14
	7.731344620767759e-08
	3.927103741918512e-06
	3.921616739452160e-07
	2.767978235139669e-01

 29	2.900000000000001e-01
	-4.245102012884717e-15
	-3.516803553289785e-18
	-1.270587410356525e-14
	8.392273494541388e-08
	4.352907702454993e-06
	4.335242489643164e-07
	2.767978282925879e-01

 30	3.000000000000001e-01
	-4.197696893469223e-15
	-3.627039208322085e-18
	-1.285429588499853e-14
	9.103509405741133e-08
	4.826038134716173e-06
	4.793773835813292e-07
	2.767978335900603e-01

 31	3.100000000000001e-01
	-4.151300308398888e-15
	-3.740704258911686e-18
	-1.300122856478564e-14
	9.868208105519863e-08
	5.351647341916324e-06
	5.302197049487203e-07
	2.767978394640025e-01

 32	3.200000000000001e-01
	-4.105915513648385e-15
	-3.857907135587931e-18
	-1.314662138434838e-14
	1.068965757988473e-07
	5.935377242823652e-06
	5.866037860100269e-07
	2.767978459782728e-01

 33	3.300000000000001e-01
	-4.061544718925489e-15
	-3.978759953996204e-18
	-1.329042617261904e-14
	1.157127788515907e-07
	6.583388174074799e-06
	6.491411866600550e-07
	2.767978532035458e-01

 34	3.400000000000001e-01
	-4.018189102371110e-15
	-4.103378656755766e-18
	-1.343259737638534e-14
	1.251662048174999e-07
	7.302385945471205e-06
	7.185077747504591e-07
	2.767978612179265e-01

 35	3.500000000000001e-01
	-3.975848827887680e-15
	-4.231883161466236e-18
	-1.357309208275893e-14
	1.352936704983159e-07
	8.099646395552733e-06
	7.954493057685362e-07
	2.767978701076035e-01

 36	3.600000000000002e-01
	-3.934523064943111e-15
	-4.364397515151866e-18
	-1.371187003392457e-14
	1.461332777510735e-07
	8.983036615428432e-06
	8.807872320881379e-07
	2.767978799675140e-01

 37	3.700000000000002e-01
	-3.894210010690797e-15
	-4.501050055444812e-18
	-1.384889363435781e-14
	1.577243909803250e-07
	9.961031936668803e-06
	9.754247040019315e-07
	2.767978909020338e-01

 38	3.800000000000002e-01
	-3.854906914240562e-15
	-4.641973578827194e-18
	-1.398412795072948e-14
	1.701076092579868e-07
	1.104272771759488e-05
	1.080352715383363e-06
	2.767979030257001e-01

 39	3.900000000000002e-01
	-3.816610102911060e-15
	-4.787305516265037e-18
	-1.411754070474337e-14
	1.833247331303729e-07
	1.223784491541133e-05
	1.196656336921089e-06
	2.767979164639205e-01

 40	4.000000000000002e-01
	-3.779315010291263e-15
	-4.937188116584748e-18
	-1.424910225917665e-14
	1.974187262459767e-07
	1.355672840339593e-05
	1.325520969582985e-06
	2.767979313537055e-01

 41	4.100000000000002e-01
	-3.743016205936303e-15
	-5.091768637961633e-18
	-1.437878559741690e-14
	2.124336720194874e-07
	1.501033698697163e-05
	1.468238540511109e-06
	2.767979478443754e-01

 42	4.200000000000002e-01
	-3.707707426522974e-15
	-5.251199547907603e-18
	-1.450656629680622e-14
	2.284147256371160e-07
	1.661022409402282e-05
	1.626213553169183e-06
	2.767979660982701e-01

 43	4.300000000000002e-01
	-3.673381608289696e-15
	-5.415638732164073e-18
	-1.463242249612209e-14
	2.454080618059940e-07
	1.836850816714625e-05
	1.800968893552581e-06
	2.767979862914103e-01

 44	4.400000000000002e-01
	-3.640030920587902e-15
	-5.585249712930073e-18
	-1.475633485753628e-14
	2.634608187556571e-07
	2.029783187198699e-05
	1.994151284949173e-06
	2.767980086141326e-01

 45	4.500000000000002e-01
	-3.607646800373836e-15
	-5.760201876873442e-18
	-1.487828652340537e-14
	2.826210391125351e-07
	2.241130935909475e-05
	2.207536275466448e-06
	2.767980332716733e-01

 46	4.600000000000002e-01
	-3.576219987472997e-15
	-5.940670713399244e-18
	-1.499826306825490e-14
	3.029376083881651e-07
	2.472246097855138e-05
	2.443032635691814e-06
	2.767980604846618e-01

 47	4.700000000000003e-01
	-3.545740560454104e-15
	-6.126838063672710e-18
	-1.511625244632375e-14
	3.244601919479880e-07
	2.724513504750416e-05
	2.702686038818003e-06
	2.767980904895578e-01

 48	4.800000000000003e-01
	-3.516197972953674e-15
	-6.318892380918918e-18
	-1.523224493504056e-14
	3.472391714591698e-07
	2.999341650984948e-05
	2.988681892734043e-06
	2.767981235389737e-01

 49	4.900000000000003e-01
	-3.487581090298626e-15
	-6.517029002550785e-18
	-1.534623307480310e-14
	3.713255819515441e-07
	3.298152260216394e-05
	3.303347193322730e-06
	2.767981599018856e-01

 50	5.000000000000002e-01
	-3.459878226280051e-15
	-6.721450434702876e-18
	-1.545821160543163e-14
	3.967710507642286e-07
	3.622368594640279e-05
	3.649151270857829e-06
	2.767981998637291e-01

 51	5.100000000000002e-01
	-3.433077179937985e-15
	-6.932366649781108e-18
	-1.556817739966343e-14
	4.236277397898776e-07
	3.973402582188303e-05
	4.028705307246415e-06
	2.767982437263326e-01

 52	5.200000000000002e-01
	-3.407165272224700e-15
	-7.149995397669008e-18
	-1.567612939405018e-14
	4.519482925668560e-07
	4.352640871881444e-05
	4.444760511128604e-06
	2.767982918077029e-01

 53	5.300000000000002e-01
	-3.382129382421000e-15
	-7.374562531264203e-18
	-1.578206851761268e-14
	4.817857879047213e-07
	4.761429963365953e-05
	4.900204850663398e-06
	2.767983444416630e-01

 54	5.400000000000003e-01
	-3.357955984187845e-15
	-7.606302347057539e-18
	-1.588599761860024e-14
	5.131937018580472e-07
	5.201060592189818e-05
	5.398058260224681e-06
	2.767984019772738e-01

 55	5.500000000000003e-01
	-3.334631181144311e-15
	-7.845457941500064e-18
	-1.598792138968884e-14
	5.462258799847392e-07
	5.672751586409064e-05
	5.941466257110244e-06
	2.767984647781189e-01

 56	5.600000000000003e-01
	-3.312140741869932e-15
	-8.092281583946815e-18
	-1.608784629194439e-14
	5.809365219361167e-07
	6.177633441362949e-05
	6.533691927529516e-06
	2.767985332213569e-01

 57	5.700000000000003e-01
	-3.290470134238739e-15
	-8.347035107007594e-18
	-1.618578047786184e-14
	6.173801805235488e-07
	6.716731886587434e-05
	7.178106267219735e-06
	2.767986076966175e-01

 58	5.800000000000003e-01
	-3.269604558999926e-15
	-8.609990315176158e-18
	-1.628173371377908e-14
	6.556117774894382e-07
	7.290951740569418e-05
	7.878176890585805e-06
	2.767986886046829e-01

 59	5.900000000000003e-01
	-3.249528982528471e-15
	-8.881429412660699e-18
	-1.637571730194959e-14
	6.956866382759381e-07
	7.901061364170635e-05
	8.637455152649686e-06
	2.767987763560124e-01

 60	6.000000000000003e-01
	-3.230228168676964e-15
	-9.161645451385538e-18
	-1.646774400254330e-14
	7.376605481328117e-07
	8.547678031042601e-05
	9.459561759630758e-06
	2.767988713690617e-01

 61	6.100000000000003e-01
	-3.211686709668083e-15
	-9.450942800186514e-18
	-1.655782795582901e-14
	7.815898319346169e-07
	9.231254532382401e-05
	1.034817097583660e-05
	2.767989740684737e-01

 62	6.200000000000003e-01
	-3.193889055974588e-15
	-9.749637636278446e-18
	-1.664598460477662e-14
	8.275314600882621e-07
	9.952067323416347e-05
	1.130699356586540e-05
	2.767990848830928e-01

 63	6.300000000000003e-01
	-3.176819545141423e-15
	-1.005805846013231e-17
	-1.673223061830113e-14
	8.755431829051341e-07
	1.071020649981367e-04
	1.233975864097617e-05
	2.767992042438737e-01

 64	6.400000000000003e-01
	-3.160462429511534e-15
	-1.037654663496131e-17
	-1.681658381535399e-14
	9.256836957902840e-07
	1.150556786397166e-04
	1.345019460596561e-05
	2.767993325816772e-01

 65	6.500000000000004e-01
	-3.144801902824286e-15
	-1.070545695208037e-17
	-1.689906309005183e-14
	9.780128375675941e-07
	1.233784730427970e-04
	1.464200942710857e-05
	2.767994703249926e-01

 66	6.600000000000004e-01
	-3.129822125661395e-15
	-1.104515822347422e-17
	-1.697968833801634e-14
	1.032591824218852e-06
	1.320653766593571e-04
	1.591887046185777e-05
	2.767996178976023e-01

 67	6.700000000000004e-01
	-3.115507249722352e-15
	-1.139603390298270e-17
	-1.705848038408316e-14
	1.089483520271720e-06
	1.411092824086853e-04
	1.728438410634317e-05
	2.767997757162334e-01

 68	6.800000000000004e-01
	-3.101841440916518e-15
	-1.175848273758629e-17
	-1.713546091152235e-14
	1.148752750033539e-06
	1.505010694833340e-04
	1.874207552669340e-05
	2.767999441882221e-01

 69	6.900000000000004e-01
	-3.088808901264969e-15
	-1.213291945036586e-17
	-1.721065239289835e-14
	1.210466650842067e-06
	1.602296521854192e-04
	2.029536874440518e-05
	2.768001237092051e-01

 70	7.000000000000004e-01
	-3.076393889610510e-15
	-1.251977545678419e-17
	-1.728407802268168e-14
	1.274695070498963e-06
	1.702820553118186e-04
	2.194756734418133e-05
	2.768003146608967e-01

 71	7.100000000000004e-01
	-3.064580741138658e-15
	-1.291949961604313e-17
	-1.735576165171142e-14
	1.341511011076692e-06
	1.806435150087416e-04
	2.370183606482683e-05
	2.768005174089643e-01

 72	7.200000000000004e-01
	-3.053353885717338e-15
	-1.333255901935697e-17
	-1.742572772359340e-14
	1.410991121353769e-06
	1.912976034448292e-04
	2.556118352009221e-05
	2.768007323010293e-01

 73	7.300000000000004e-01
	-3.042697865066720e-15
	-1.375943981708801e-17
	-1.749400121310611e-14
	1.483216240247022e-06
	2.022263751261726e-04
	2.752844627715101e-05
	2.768009596648358e-01

 74	7.400000000000004e-01
	-3.032597348774484e-15
	-1.420064808680421e-17
	-1.756060756667382e-14
	1.558271993783509e-06
	2.134105322133841e-04
	2.960627449624467e-05
	2.768011998065834e-01

 75	7.500000000000004e-01
	-3.023037149175350e-15
	-1.465671074442239e-17
	-1.762557264495459e-14
	1.636249448398628e-06
	2.248296058142920e-04
	3.179711930660635e-05
	2.768014530094781e-01

 76	7.600000000000005e-01
	-3.014002235116216e-15
	-1.512817650073244e-17
	-1.768892266757976e-14
	1.717245823671879e-06
	2.364621499271043e-04
	3.410322206193027e-05
	2.768017195324857e-01

 77	7.700000000000005e-01
	-3.005477744631476e-15
	-1.561561686571844e-17
	-1.775068416007082e-14
	1.801365268027594e-06
	2.482859445053381e-04
	3.652660558428780e-05
	2.768019996093279e-01

 78	7.800000000000005e-01
	-2.997448996555081e-15
	-1.611962720323156e-17
	-1.781088390294964e-14
	1.888719701445260e-06
	2.602782040110271e-04
	3.906906746948923e-05
	2.768022934477012e-01

 79	7.900000000000005e-01
	-2.989901501097874e-15
	-1.664082783870730e-17
	-1.786954888304918e-14
	1.979429729853308e-06
	2.724157878163699e-04
	4.173217549043442e-05
	2.768026012287512e-01

 80	8.000000000000005e-01
	-2.982820969420823e-15
	-1.717986522277429e-17
	-1.792670624702283e-14
	2.073625636632008e-06
	2.846754089021276e-04
	4.451726509896006e-05
	2.768029231067810e-01

 81	8.100000000000005e-01
	-2.976193322235791e-15
	-1.773741315375890e-17
	-1.798238325704273e-14
	2.171448457536605e-06
	2.970338374763559e-04
	4.742543899197855e-05
	2.768032592092022e-01

 82	8.200000000000005e-01
	-2.970004697466896e-15
	-1.831417406225373e-17
	-1.803660724867030e-14
	2.273051146382965e-06
	3.094680963894525e-04
	5.045756867514798e-05
	2.768036096367109e-01

 83	8.300000000000005e-01
	-2.964241457006394e-15
	-1.891088036109731e-17
	-1.808940559087536e-14
	2.378599840027802e-06
	3.219556455386333e-04
	5.361429792761109e-05
	2.768039744636953e-01

 84	8.400000000000005e-01
	-2.958890192599537e-15
	-1.952829586429918e-17
	-1.814080564817435e-14
	2.488275232538981e-06
	3.344745528231089e-04
	5.689604804509115e-05
	2.768043537388292e-01

 85	8.500000000000005e-01
	-2.953937730893668e-15
	-2.016721727863346e-17
	-1.819083474485243e-14
	2.602274070004577e-06
	3.470036496156407e-04
	6.030302471624203e-05
	2.768047474858796e-01

 86	8.600000000000005e-01
	-2.949371137686504e-15
	-2.082847577184029e-17
	-1.823952013122981e-14
	2.720810779193469e-06
	3.595226691422541e-04
	6.383522636895516e-05
	2.768051557046526e-01

 87	8.700000000000006e-01
	-2.945177721409246e-15
	-2.151293862157780e-17
	-1.828688895192775e-14
	2.844119245275469e-06
	3.720123665950188e-04
	6.749245380939861e-05
	2.768055783721245e-01

 88	8.800000000000006e-01
	-2.941345035879438e-15
	-2.222151094951343e-17
	-1.833296821608641e-14
	2.972454756066016e-06
	3.844546202301018e-04
	7.127432096699975e-05
	2.768060154436672e-01

 89	8.900000000000006e-01
	-2.937860882358746e-15
	-2.295513754516257e-17
	-1.837778476948293e-14
	3.106096132807055e-06
	3.968325131123950e-04
	7.518026655316045e-05
	2.768064668544082e-01

 90	9.000000000000006e-01
	-2.934713310949935e-15
	-2.371480478435667e-17
	-1.842136526849574e-14
	3.245348070372950e-06
	4.091303955492547e-04
	7.920956644007264e-05
	2.768069325206463e-01

 91	9.100000000000006e-01
	-2.931890621367121e-15
	-2.450154264747133e-17
	-1.846373615585823e-14
	3.390543713039172e-06
	4.213339286007117e-04
	8.336134656818245e-05
	2.768074123413558e-01

 92	9.200000000000006e-01
	-2.929381363112458e-15
	-2.531642684283452e-17
	-1.850492363814328e-14
	3.542047495625665e-06
	4.334301093561463e-04
	8.763459619630189e-05
	2.768079061997098e-01

 93	9.300000000000006e-01
	-2.927174335091777e-15
	-2.616058104102441e-17
	-1.854495366491862e-14
	3.700258283984151e-06
	4.454072789234830e-04
	9.202818131658755e-05
	2.768084139646334e-01

 94	9.400000000000006e-01
	-2.925258584700757e-15
	-2.703517922607318e-17
	-1.858385190951126e-14
	3.865612853509636e-06
	4.572551142845445e-04
	9.654085806716079e-05
	2.768089354923529e-01

 95	9.500000000000006e-01
	-2.923623406412268e-15
	-2.794144816991804e-17
	-1.862164375131900e-14
	4.038589749700166e-06
	4.689646053287483e-04
	1.011712859875188e-04
	2.768094706279268e-01

 96	9.600000000000006e-01
	-2.922258339894484e-15
	-2.888067003677444e-17
	-1.865835425960620e-14
	4.219713580856947e-06
	4.805280184880949e-04
	1.059180409756111e-04
	2.768100192067427e-01

 97	9.700000000000006e-01
	-2.921153167688304e-15
	-2.985418512446467e-17
	-1.869400817872049e-14
	4.409559799912955e-06
	4.919388484616962e-04
	1.107796278200439e-04
	2.768105810559734e-01

 98	9.800000000000006e-01
	-2.920297912471549e-15
	-3.086339475009939e-17
	-1.872862991466727e-14
	4.608760040221467e-06
	5.031917595415112e-04
	1.157544921959316e-04
	2.768111559959540e-01

 99	9.900000000000007e-01
	-2.919682833935877e-15
	-3.190976428789742e-17
	-1.876224352297977e-14
	4.818008079055908e-06
	5.142825180364183e-04
	1.208410320279634e-04
	2.768117438414961e-01

 100	1.000000000000001e+00
	-2.919298425301933e-15
	-3.299482636732823e-17
	-1.879487269782104e-14
	5.038066512719448e-06
	5.252079172441475e-04
	1.260376081390296e-04
	2.768123444031284e-01

 101	1.010000000000001e+00
	-2.919135409495944e-15
	-3.412018424018663e-17
	-1.882654076225725e-14
	5.269774238698689e-06
	5.359656963446897e-04
	1.313425541168967e-04
	2.768129574882248e-01

 102	1.020000000000001e+00
	-2.919184735010774e-15
	-3.528751532562926e-17
	-1.885727065964045e-14
	5.514054853393274e-06
	5.465544544893185e-04
	1.367541853446457e-04
	2.768135829020622e-01

 103	1.030000000000001e+00
	-2.919437571472330e-15
	-3.649857494267374e-17
	-1.888708494604121e-14
	5.771926088807457e-06
	5.569735612415070e-04
	1.422708071527917e-04
	2.768142204487457e-01

 104	1.040000000000001e+00
	-2.919885304931738e-15
	-3.775520024010313e-17
	-1.891600578367182e-14
	6.044510428387642e-06
	5.672230643936736e-04
	1.478907220618709e-04
	2.768148699320587e-01

 105	1.050000000000001e+00
	-2.920519532901719e-15
	-3.905931433421951e-17
	-1.894405493524245e-14
	6.333047061135168e-06
	5.773035960415987e-04
	1.536122360938454e-04
	2.768155311561910e-01

 106	1.060000000000001e+00
	-2.921332059154794e-15
	-4.041293066537980e-17
	-1.897125375919373e-14
	6.638905354395353e-06
	5.872162776496684e-04
	1.594336641387382e-04
	2.768162039263566e-01

 107	1.070000000000001e+00
	-2.922314888299673e-15
	-4.181815758475199e-17
	-1.899762320575048e-14
	6.963600049481018e-06
	5.969626246883344e-04
	1.653533343694829e-04
	2.768168880493028e-01

 108	1.080000000000001e+00
	-2.923460220150723e-15
	-4.327720318325559e-17
	-1.902318381374295e-14
	7.308808410633324e-06
	6.065444512730309e-04
	1.713695917030197e-04
	2.768175833337116e-01

 109	1.090000000000001e+00
	-2.924760443904451e-15
	-4.479238037518030e-17
	-1.904795570814323e-14
	7.676389586768228e-06
	6.159637750836438e-04
	1.774808003092113e-04
	2.768182895904947e-01

 110	1.100000000000001e+00
	-2.926208132135563e-15
	-4.636611224952329e-17
	-1.907195859826609e-14
	8.068406476872594e-06
	6.252227226975902e-04
	1.836853451712105e-04
	2.768190066329629e-01

 111	1.110000000000001e+00
	-2.927796034624281e-15
	-4.800093770261310e-17
	-1.909521177658482e-14
	8.487150423451656e-06
	6.343234353293545e-04
	1.899816327015091e-04
	2.768197342769093e-01

 112	1.120000000000001e+00
	-2.929517072024883e-15
	-4.969951736616272e-17
	-1.911773411811497e-14
	8.935169093432836e-06
	6.432679748371546e-04
	1.963680904171974e-04
	2.768204723405595e-01

 113	1.130000000000001e+00
	-2.931364329385312e-15
	-5.146463984540758e-17
	-1.913954408031862e-14
	9.415297941268965e-06
	6.520582297347016e-04
	2.028431656758970e-04
	2.768212206444432e-01

 114	1.140000000000001e+00
	-2.933331049525303e-15
	-5.329922828256762e-17
	-1.916065970348606e-14
	9.930695682904389e-06
	6.606958208359763e-04
	2.094053234707026e-04
	2.768219790111198e-01

 115	1.150000000000001e+00
	-2.935410626280870e-15
	-5.520634726135519e-17
	-1.918109861155059e-14
	1.048488423909346e-05
	6.691820060658894e-04
	2.160530432782057e-04
	2.768227472648219e-01

 116	1.160000000000001e+00
	-2.937596597620986e-15
	-5.718921006879919e-17
	-1.920087801329529e-14
	1.108179362841058e-05
	6.775175838948840e-04
	2.227848149486340e-04
	2.768235252309922e-01

 117	1.170000000000001e+00
	-2.939882638641500e-15
	-5.925118633114102e-17
	-1.922001470391186e-14
	1.172581229860548e-05
	6.857027948065659e-04
	2.295991336214878e-04
	2.768243127356697e-01

 118	1.180000000000001e+00
	-2.942262554441188e-15
	-6.139581004097840e-17
	-1.923852506687235e-14
	1.242184337194897e-05
	6.937372201925600e-04
	2.364944936439380e-04
	2.768251096048177e-01

 119	1.190000000000001e+00
	-2.944730272882599e-15
	-6.362678799331434e-17
	-1.925642507607727e-14
	1.317536723524721e-05
	7.016196781005387e-04
	2.434693814634558e-04
	2.768259156634736e-01

 120	1.200000000000001e+00
	-2.947279837241196e-15
	-6.594800864845231e-17
	-1.927373029824340e-14
	1.399251081381900e-05
	7.093481153537712e-04
	2.505222674606559e-04
	2.768267307348297e-01

 121	1.210000000000001e+00
	-2.949905398743942e-15
	-6.836355144005187e-17
	-1.929045589549763e-14
	1.488012371190879e-05
	7.169194957360159e-04
	2.576515966844528e-04
	2.768275546391423e-01

 122	1.220000000000001e+00
	-2.952601208999150e-15
	-7.087769654681041e-17
	-1.930661662814306e-14
	1.584586115489636e-05
	7.243296842191743e-04
	2.648557784497816e-04
	2.768283871925468e-01

 123	1.230000000000001e+00
	-2.955361612317807e-15
	-7.349493514640969e-17
	-1.932222685756589e-14
	1.689827329985129e-05
	7.315733276380795e-04
	2.721331747599891e-04
	2.768292282057058e-01

 124	1.240000000000001e+00
	-2.958181037926713e-15
	-7.621998017034847e-17
	-1.933730054925190e-14
	1.804689995160482e-05
	7.386437328273276e-04
	2.794820875228628e-04
	2.768300774823426e-01

 125	1.250000000000001e+00
	-2.961053992072807e-15
	-7.905777757816351e-17
	-1.935185127588369e-14
	1.930236898546290e-05
	7.455327440789593e-04
	2.869007445434707e-04
	2.768309348176122e-01

 126	1.260000000000001e+00
	-2.963975050018163e-15
	-8.201351816927209e-17
	-1.936589222048965e-14
	2.067649578281714e-05
	7.522306229105151e-04
	2.943872843009041e-04
	2.768317999963503e-01

 127	1.270000000000001e+00
	-2.966938847924440e-15
	-8.509264995019303e-17
	-1.937943617961775e-14
	2.218237967789144e-05
	7.587259346066687e-04
	3.019397395530051e-04
	2.768326727911802e-01

 128	1.280000000000001e+00
	-2.969940074625538e-15
	-8.830089107426462e-17
	-1.939249556650803e-14
	2.383449174344933e-05
	7.650054478617729e-04
	3.095560198667563e-04
	2.768335529604806e-01

 129	1.290000000000001e+00
	-2.972973463287594e-15
	-9.164424337003348e-17
	-1.940508241423786e-14
	2.564874617929508e-05
	7.710540561312801e-04
	3.172338932462420e-04
	2.768344402462805e-01

 130	1.300000000000001e+00
	-2.976033782954604e-15
	-9.512900647334715e-17
	-1.941720837881676e-14
	2.764254511712856e-05
	7.768547319792437e-04
	3.249709671293461e-04
	2.768353343720491e-01

 131	1.310000000000001e+00
	-2.979115829979386e-15
	-9.876179257668703e-17
	-1.942888474220632e-14
	2.983478389399629e-05
	7.823885286908668e-04
	3.327646691517696e-04
	2.768362350404847e-01

 132	1.320000000000001e+00
	-2.982214419338899e-15
	-1.025495418074512e-16
	-1.944012241524355e-14
	3.224580095725714e-05
	7.876346464903061e-04
	3.406122282350881e-04
	2.768371419313163e-01

 133	1.330000000000001e+00
	-2.985324375834535e-15
	-1.064995382446732e-16
	-1.945093194044547e-14
	3.489725388417843e-05
	7.925705834812700e-04
	3.485106567431550e-04
	2.768380546992527e-01

 134	1.340000000000001e+00
	-2.988440525177848e-15
	-1.106194265810199e-16
	-1.946132349467447e-14
	3.781190106828050e-05
	7.971723933138937e-04
	3.564567346627752e-04
	2.768389729721499e-01

 135	1.350000000000001e+00
	-2.991557684964077e-15
	-1.149172294337702e-16
	-1.947130689164429e-14
	4.101326821362558e-05
	8.014150717332743e-04
	3.644469969870848e-04
	2.768398963495523e-01

 136	1.360000000000001e+00
	-2.994670655536231e-15
	-1.194013653047664e-16
	-1.948089158424772e-14
	4.452518087806786e-05
	8.052730915186885e-04
	3.724777256910781e-04
	2.768408244017733e-01

 137	1.370000000000001e+00
	-2.997774210744560e-15
	-1.240806671850528e-16
	-1.949008666668753e-14
	4.837115003373704e-05
	8.087210986994864e-04
	3.805449478544281e-04
	2.768417566696658e-01

 138	1.380000000000001e+00
	-3.000863088607358e-15
	-1.289644017948720e-16
	-1.949890087639428e-14
	5.257360799658471e-05
	8.117347712799876e-04
	3.886444415616907e-04
	2.768426926653135e-01

 139	1.390000000000001e+00
	-3.003931981881183e-15
	-1.340622894439223e-16
	-1.950734259571441e-14
	5.715300770008765e-05
	8.142918244810638e-04
	3.967717511408452e-04
	2.768436318737945e-01

 140	1.400000000000001e+00
	-3.006975528550100e-15
	-1.393845244900909e-16
	-1.951541985335541e-14
	6.212681880876612e-05
	8.163731241923453e-04
	4.049222130332910e-04
	2.768445737561587e-01

 141	1.410000000000001e+00
	-3.009988302246386e-15
	-1.449417963670997e-16
	-1.952314032557489e-14
	6.750847781984399e-05
	8.179638449456639e-04
	4.130909930797581e-04
	2.768455177537544e-01

 142	1.420000000000001e+00
	-3.012964802616258e-15
	-1.507453111427603e-16
	-1.953051133710450e-14
	7.330637258886943e-05
	8.190545841201743e-04
	4.212731352442852e-04
	2.768464632938388e-01

 143	1.430000000000001e+00
	-3.015899445648221e-15
	-1.568068135592373e-16
	-1.953753986180031e-14
	7.952295956274121e-05
	8.196423257448236e-04
	4.294636208162593e-04
	2.768474097964406e-01

 144	1.440000000000001e+00
	-3.018786553982721e-15
	-1.631386094953445e-16
	-1.954423252301616e-14
	8.615411861782679e-05
	8.197311413071042e-04
	4.376574360222120e-04
	2.768483566821560e-01

 145	1.450000000000001e+00
	-3.021620347226560e-15
	-1.697535887777304e-16
	-1.955059559369805e-14
	9.318884085240679e-05
	8.193325264861074e-04
	4.458496448950932e-04
	2.768493033805764e-01

 146	1.460000000000001e+00
	-3.024394932298496e-15
	-1.766652482533038e-16
	-1.955663499620157e-14
	1.006093168647952e-04
	8.184653036639897e-04
	4.540354633773205e-04
	2.768502493388600e-01

 147	1.470000000000001e+00
	-3.027104293837092e-15
	-1.838877150190470e-16
	-1.956235630183760e-14
	1.083914492659169e-04
	8.171550676553327e-04
	4.622103301594480e-04
	2.768511940299019e-01

 148	1.480000000000001e+00
	-3.029742284708001e-15
	-1.914357696875435e-16
	-1.956776473015398e-14
	1.165057604981884e-04
	8.154332085444199e-04
	4.703699698100042e-04
	2.768521369596412e-01

 149	1.490000000000001e+00
	-3.032302616653478e-15
	-1.993248695472495e-16
	-1.957286514796411e-14
	1.249186158905759e-04
	8.133355996436442e-04
	4.785104443686266e-04
	2.768530776730121e-01

 150	1.500000000000001e+00
	-3.034778851135130e-15
	-2.075711714554607e-16
	-1.957766206813579e-14
	1.335936431411401e-04
	8.109010789296099e-04
	4.866281906717151e-04
	2.768540157582723e-01

 151	1.510000000000001e+00
	-3.037164390428045e-15
	-2.161915542795013e-16
	-1.958215964815705e-14
	1.424932110282869e-04
	8.081698707074072e-04
	4.947200420753540e-04
	2.768549508494960e-01

 152	1.520000000000001e+00
	-3.039452469034596e-15
	-2.252036406772312e-16
	-1.958636168849800e-14
	1.515798347247056e-04
	8.051820882619878e-04
	5.027832346967331e-04
	2.768558826273126e-01

 153	1.530000000000001e+00
	-3.041636145493897e-15
	-2.346258179822492e-16
	-1.959027163079293e-14