Title: ** sch_path: /home/andylithia/openmpw/project-yatsuhashi-chip1/xschem/gmid_test/nmos_test.sch
Date: Sun Jul 17 22:51:45  2022
Plotname: DC transfer characteristic
Flags: real
No. Variables: 8
No. Points: 181
Variables:
	0	v(v-sweep)	voltage
	1	@m.xm1.msky130_fd_pr__nfet_01v8[cgb]	capacitance
	2	@m.xm1.msky130_fd_pr__nfet_01v8[cgd]	capacitance
	3	@m.xm1.msky130_fd_pr__nfet_01v8[cgs]	capacitance
	4	@m.xm1.msky130_fd_pr__nfet_01v8[gds]	admittance
	5	@m.xm1.msky130_fd_pr__nfet_01v8[gm]	admittance
	6	i(@m.xm1.msky130_fd_pr__nfet_01v8[id])	current
	7	v(@m.xm1.msky130_fd_pr__nfet_01v8[vth])	voltage
Values:
 0	0.000000000000000e+00
	-1.690105489240226e-14
	-1.019372416844910e-17
	-3.547618016139515e-14
	4.317430660454039e-08
	1.349525233052091e-06
	1.816979543801374e-07
	1.577653819896294e-01

 1	1.000000000000000e-02
	-1.672346364531378e-14
	-1.046079591262479e-17
	-3.590430219620757e-14
	4.630374136014232e-08
	1.453838079138297e-06
	1.957081368768985e-07
	1.577653836945556e-01

 2	2.000000000000000e-02
	-1.654846867630450e-14
	-1.073514635004129e-17
	-3.633116623890072e-14
	4.964744595929298e-08
	1.566432287822203e-06
	2.108022959873425e-07
	1.577653855314095e-01

 3	3.000000000000000e-02
	-1.637609743631907e-14
	-1.101698635087506e-17
	-3.675664270265288e-14
	5.321890031508846e-08
	1.688006870901974e-06
	2.270666892408560e-07
	1.577653875106886e-01

 4	4.000000000000000e-02
	-1.620637617009207e-14
	-1.130653347340655e-17
	-3.718060341341121e-14
	5.703232835501372e-08
	1.819324905482837e-06
	2.445948796368730e-07
	1.577653896437834e-01

 5	5.000000000000000e-02
	-1.603932987246770e-14
	-1.160401220044077e-17
	-3.760292174487892e-14
	6.110273097211777e-08
	1.961219741360861e-06
	2.634884068596845e-07
	1.577653919430550e-01

 6	6.000000000000000e-02
	-1.587498224766686e-14
	-1.190965418503035e-17
	-3.802347275016283e-14
	6.544591990051290e-08
	2.114601794618912e-06
	2.838575234588004e-07
	1.577653944219259e-01

 7	7.000000000000001e-02
	-1.571335567155644e-14
	-1.222369850590367e-17
	-3.844213328980629e-14
	7.007855251483231e-08
	2.280465974636550e-06
	3.058220020908526e-07
	1.577653970949776e-01

 8	8.000000000000000e-02
	-1.555447115696591e-14
	-1.254639193302326e-17
	-3.885878215594628e-14
	7.501816755273968e-08
	2.459899794014517e-06
	3.295120204026041e-07
	1.577653999780583e-01

 9	9.000000000000000e-02
	-1.539834832208877e-14
	-1.287798920371530e-17
	-3.927330019234510e-14
	8.028322175916766e-08
	2.654092213087671e-06
	3.550691306405596e-07
	1.577654030884023e-01

 10	9.999999999999999e-02
	-1.524500536199579e-14
	-1.321875330983799e-17
	-3.968557041006409e-14
	8.589312745067841e-08
	2.864343272700988e-06
	3.826473215996097e-07
	1.577654064447562e-01

 11	1.100000000000000e-01
	-1.509445902327960e-14
	-1.356895579647055e-17
	-4.009547809855816e-14
	9.186829099815578e-08
	3.092074570695576e-06
	4.124141810687623e-07
	1.577654100675265e-01

 12	1.200000000000000e-01
	-1.494672458183952e-14
	-1.392887707263619e-17
	-4.050291093198983e-14
	9.823015222607800e-08
	3.338840639038544e-06
	4.445521674943184e-07
	1.577654139789297e-01

 13	1.300000000000000e-01
	-1.480181582380808e-14
	-1.429880673459284e-17
	-4.090775907057444e-14
	1.050012247267055e-07
	3.606341279660070e-06
	4.792600001559074e-07
	1.577654182031606e-01

 14	1.400000000000000e-01
	-1.465974502961025e-14
	-1.467904390224895e-17
	-4.130991525678671e-14
	1.122051370878449e-07
	3.896434917762325e-06
	5.167541777353115e-07
	1.577654227665854e-01

 15	1.500000000000000e-01
	-1.452052296113874e-14
	-1.506989756929396e-17
	-4.170927490627613e-14
	1.198666750333184e-07
	4.211153031554243e-06
	5.572706357470220e-07
	1.577654276979324e-01

 16	1.600000000000000e-01
	-1.438415885201938e-14
	-1.547168696765852e-17
	-4.210573619335581e-14
	1.280118244758761e-07
	4.552715716952902e-06
	6.010665538872086e-07
	1.577654330285180e-01

 17	1.700000000000000e-01
	-1.425066040093270e-14
	-1.588474194694764e-17
	-4.249920013094681e-14
	1.366678154831213e-07
	4.923548444681559e-06
	6.484223249382406e-07
	1.577654387924927e-01

 18	1.800000000000000e-01
	-1.412003376794866e-14
	-1.630940336952577e-17
	-4.288957064488076e-14
	1.458631671580218e-07
	5.326300065280164e-06
	6.996436974311971e-07
	1.577654450270900e-01

 19	1.900000000000000e-01
	-1.399228357382506e-14
	-1.674602352196390e-17
	-4.327675464247706e-14
	1.556277334367666e-07
	5.763862114712607e-06
	7.550641048102192e-07
	1.577654517729189e-01

 20	2.000000000000000e-01
	-1.386741290221105e-14
	-1.719496654359011e-17
	-4.366066207533398e-14
	1.659927498081530e-07
	6.239389469392533e-06
	8.150471943510080e-07
	1.577654590742703e-01

 21	2.100000000000000e-01
	-1.374542330469067e-14
	-1.765660887292956e-17
	-4.404120599628789e-14
	1.769908809603369e-07
	6.756322394425518e-06
	8.799895695494659e-07
	1.577654669794519e-01

 22	2.200000000000001e-01
	-1.362631480859455e-14
	-1.813133971285016e-17
	-4.441830261051337e-14
	1.886562693626638e-07
	7.318410022553788e-06
	9.503237601037489e-07
	1.577654755411453e-01

 23	2.300000000000001e-01
	-1.351008592750076e-14
	-1.861956151527679e-17
	-4.479187132075583e-14
	2.010245847924544e-07
	7.929735293554947e-06
	1.026521433950001e-06
	1.577654848168072e-01

 24	2.400000000000001e-01
	-1.339673367434023e-14
	-1.912169048637577e-17
	-4.516183476670408e-14
	2.141330748191622e-07
	8.594741374553749e-06
	1.109096866064214e-06
	1.577654948690835e-01

 25	2.500000000000001e-01
	-1.328625357701650e-14
	-1.963815711316030e-17
	-4.552811885852727e-14
	2.280206162610342e-07
	9.318259570714457e-06
	1.198610678892935e-06
	1.577655057662690e-01

 26	2.600000000000001e-01
	-1.317863969644405e-14
	-2.016940671250961e-17
	-4.589065280461857e-14
	2.427277676327348e-07
	1.010553872296316e-05
	1.295673869307441e-06
	1.577655175828001e-01

 27	2.700000000000001e-01
	-1.307388464690460e-14
	-2.071590000365154e-17
	-4.624936913360207e-14
	2.582968226060089e-07
	1.096227607460613e-05
	1.400952136869420e-06
	1.577655303997808e-01

 28	2.800000000000001e-01
	-1.297197961861747e-14
	-2.127811370520375e-17
	-4.660420371067545e-14
	2.747718645096681e-07
	1.189464957184443e-05
	1.515170527931602e-06
	1.577655443055492e-01

 29	2.900000000000001e-01
	-1.287291440241490e-14
	-2.185654115793033e-17
	-4.695509574837568e-14
	2.921988219000249e-07
	1.290935154412305e-05
	1.639118409652532e-06
	1.577655593962821e-01

 30	3.000000000000001e-01
	-1.277667741641107e-14
	-2.245169297442299e-17
	-4.730198781186861e-14
	3.106255252383575e-07
	1.401362368889642e-05
	1.773654787357992e-06
	1.577655757766509e-01

 31	3.100000000000001e-01
	-1.268325573455003e-14
	-2.306409771698591e-17
	-4.764482581887737e-14
	3.301017647184421e-07
	1.521529326167200e-05
	1.919713977810088e-06
	1.577655935605062e-01

 32	3.200000000000001e-01
	-1.259263511691629e-14
	-2.369430260505877e-17
	-4.798355903437478e-14
	3.506793492944197e-07
	1.652281034604829e-05
	2.078311649823148e-06
	1.577656128716192e-01

 33	3.300000000000001e-01
	-1.250480004168874e-14
	-2.434287425358859e-17
	-4.831814006017982e-14
	3.724121669678215e-07
	1.794528604988410e-05
	2.250551242270841e-06
	1.577656338444622e-01

 34	3.400000000000001e-01
	-1.241973373861826e-14
	-2.501039944382902e-17
	-4.864852481960573e-14
	3.953562464023168e-07
	1.949253144273076e-05
	2.437630767835306e-06
	1.577656566250408e-01

 35	3.500000000000001e-01
	-1.233741822390837e-14
	-2.569748592812357e-17
	-4.897467253731935e-14
	4.195698199462033e-07
	2.117509701629184e-05
	2.640850008833894e-06
	1.577656813717696e-01

 36	3.600000000000002e-01
	-1.225783433637712e-14
	-2.640476327030969e-17
	-4.929654571457931e-14
	4.451133881557800e-07
	2.300431241405664e-05
	2.861618109098346e-06
	1.577657082564024e-01

 37	3.700000000000002e-01
	-1.218096177477922e-14
	-2.713288372346090e-17
	-4.961411010002936e-14
	4.720497859281356e-07
	2.499232613854489e-05
	3.101461563153470e-06
	1.577657374650039e-01

 38	3.800000000000002e-01
	-1.210677913616762e-14
	-2.788252314678694e-17
	-4.992733465622949e-14
	5.004442503697005e-07
	2.715214490504018e-05
	3.362032600828085e-06
	1.577657691989742e-01

 39	3.900000000000002e-01
	-1.203526395517422e-14
	-2.865438196358377e-17
	-5.023619152211501e-14
	5.303644905475634e-07
	2.949767226956775e-05
	3.645117961912355e-06
	1.577658036761182e-01

 40	4.000000000000002e-01
	-1.196639274409114e-14
	-2.944918616224773e-17
	-5.054065597157853e-14
	5.618807592945915e-07
	3.204374611657308e-05
	3.952648051539457e-06
	1.577658411317673e-01

 41	4.100000000000002e-01
	-1.190014103363546e-14
	-3.026768834245710e-17
	-5.084070636837350e-14
	5.950659272673232e-07
	3.480617454873937e-05
	4.286706462606561e-06
	1.577658818199383e-01

 42	4.200000000000002e-01
	-1.183648341428181e-14
	-3.111066880874489e-17
	-5.113632411754387e-14
	6.299955594878777e-07
	3.780176967818293e-05
	4.649539846754468e-06
	1.577659260145325e-01

 43	4.300000000000002e-01
	-1.177539357805035e-14
	-3.197893671379346e-17
	-5.142749361358490e-14
	6.667479946385060e-07
	4.104837877553001e-05
	5.043568110199488e-06
	1.577659740105892e-01

 44	4.400000000000002e-01
	-1.171684436063957e-14
	-3.287333125391590e-17
	-5.171420218554306e-14
	7.054044274207521e-07
	4.456491219183470e-05
	5.471394905063545e-06
	1.577660261255624e-01

 45	4.500000000000002e-01
	-1.166080778379600e-14
	-3.379472291930863e-17
	-5.199644003926543e-14
	7.460489943410947e-07
	4.837136742876850e-05
	5.935818380794396e-06
	1.577660827006307e-01

 46	4.600000000000002e-01
	-1.160725509781730e-14
	-3.474401480180953e-17
	-5.227420019700684e-14
	7.887688633424832e-07
	5.248884869590052e-05
	6.439842153831306e-06
	1.577661441020347e-01

 47	4.700000000000003e-01
	-1.155615682408676e-14
	-3.572214396301936e-17
	-5.254747843460476e-14
	8.336543277674039e-07
	5.693958126121679e-05
	6.986686446888851e-06
	1.577662107224393e-01

 48	4.800000000000003e-01
	-1.150748279754232e-14
	-3.673008286582733e-17
	-5.281627321643027e-14
	8.807989052141512e-07
	6.174691987335801e-05
	7.579799342145677e-06
	1.577662829823029e-01

 49	4.900000000000003e-01
	-1.146120220898609e-14
	-3.776884087251092e-17
	-5.308058562832110e-14
	9.302994419350465e-07
	6.693535051254538e-05
	8.222868085292162e-06
	1.577663613312535e-01

 50	5.000000000000002e-01
	-1.141728364714416e-14
	-3.883946581277143e-17
	-5.334041930870191e-14
	9.822562235249927e-07
	7.253048471301412e-05
	8.919830369878796e-06
	1.577664462494675e-01

 51	5.100000000000002e-01
	-1.137569514039164e-14
	-3.994304562524202e-17
	-5.359578037809137e-14
	1.036773092762395e-06
	7.855904569423243e-05
	9.674885523796640e-06
	1.577665382490329e-01

 52	5.200000000000002e-01
	-1.133640419805985e-14
	-4.108071007618861e-17
	-5.384667736719577e-14
	1.093957575594046e-06
	8.504884554249361e-05
	1.049250551210352e-05
	1.577666378752808e-01

 53	5.300000000000002e-01
	-1.129937785124932e-14
	-4.225363255932687e-17
	-5.409312114378098e-14
	1.153921016402473e-06
	9.202875269986620e-05
	1.137744566288789e-05
	1.577667457081032e-01

 54	5.400000000000003e-01
	-1.126458269307434e-14
	-4.346303198088985e-17
	-5.433512483851273e-14
	1.216778723861446e-06
	9.952864904521189e-05
	1.233475501556170e-05
	1.577668623632017e-01

 55	5.500000000000003e-01
	-1.123198491827043e-14
	-4.471017473430615e-17
	-5.457270376994960e-14
	1.282650128873941e-06
	1.075793758930770e-04
	1.336978618400912e-05
	1.577669884932897e-01

 56	5.600000000000003e-01
	-1.120155036209995e-14
	-4.599637676907870e-17
	-5.480587536886601e-14
	1.351658956300395e-06
	1.162126682918248e-04
	1.448820462054395e-05
	1.577671247892219e-01

 57	5.700000000000003e-01
	-1.117324453849469e-14
	-4.732300575869960e-17
	-5.503465910208108e-14
	1.423933412425770e-06
	1.254610770732044e-04
	1.569599716078508e-05
	1.577672719810190e-01

 58	5.800000000000003e-01
	-1.114703267738089e-14
	-4.869148337271011e-17
	-5.525907639595619e-14
	1.499606390384664e-06
	1.353578781922773e-04
	1.699947972450076e-05
	1.577674308388148e-01

 59	5.900000000000003e-01
	-1.112287976113268e-14
	-5.010328765827107e-17
	-5.547915055972650e-14
	1.578815696068483e-06
	1.459369689997474e-04
	1.840530404337323e-05
	1.577676021736637e-01

 60	6.000000000000003e-01
	-1.110075056010777e-14
	-5.155995553692270e-17
	-5.569490670881711e-14
	1.661704297380123e-06
	1.572327512082636e-04
	1.992046328364187e-05
	1.577677868382186e-01

 61	6.100000000000003e-01
	-1.108060966722101e-14
	-5.306308542250006e-17
	-5.590637168829306e-14
	1.748420600084819e-06
	1.692800004500915e-04
	2.155229642987537e-05
	1.577679857272573e-01

 62	6.200000000000003e-01
	-1.106242153151653e-14
	-5.461433996650510e-17
	-5.611357399658274e-14
	1.839118753934727e-06
	1.821137224750328e-04
	2.330849129585284e-05
	1.577681997780472e-01

 63	6.300000000000003e-01
	-1.104615049070242e-14
	-5.621544893757150e-17
	-5.631654370960951e-14
	1.933958993224570e-06
	1.957689962036655e-04
	2.519708602985519e-05
	1.577684299705175e-01

 64	6.400000000000003e-01
	-1.103176080261636e-14
	-5.786821224202913e-17
	-5.651531240545668e-14
	2.033108016472257e-06
	2.102808040304687e-04
	2.722646898472300e-05
	1.577686773272373e-01

 65	6.500000000000004e-01
	-1.101921667559399e-14
	-5.957450309293855e-17
	-5.670991308968563e-14
	2.136739410518001e-06
	2.256838499622908e-04
	2.940537682794605e-05
	1.577689429131767e-01

 66	6.600000000000004e-01
	-1.100848229771523e-14
	-6.133627133538094e-17
	-5.690038012141975e-14
	2.245034125005643e-06
	2.420123663776464e-04
	3.174289077392077e-05
	1.577692278352391e-01

 67	6.700000000000004e-01
	-1.099952186490766e-14
	-6.315554693620523e-17
	-5.708674914029794e-14
	2.358181003959144e-06
	2.592999103986512e-04
	3.424843082941811e-05
	1.577695332415617e-01

 68	6.800000000000004e-01
	-1.099229960788856e-14
	-6.503444364687407e-17
	-5.726905699439740e-14
	2.476377382005074e-06
	2.775791510768262e-04
	3.693174795429513e-05
	1.577698603205471e-01

 69	6.900000000000004e-01
	-1.098677981793110e-14
	-6.697516284853821e-17
	-5.744734166921487e-14
	2.599829753730067e-06
	2.968816488028924e-04
	3.980291405257156e-05
	1.577702102996454e-01

 70	7.000000000000004e-01
	-1.098292687144288e-14
	-6.897999758893468e-17
	-5.762164221779119e-14
	2.728754525713296e-06
	3.172376285550089e-04
	4.287230972415099e-05
	1.577705844438527e-01

 71	7.100000000000004e-01
	-1.098070525334734e-14
	-7.105133682125161e-17
	-5.779199869205619e-14
	2.863378861953968e-06
	3.386757487954411e-04
	4.615060972463111e-05
	1.577709840539433e-01

 72	7.200000000000004e-01
	-1.098007957926229e-14
	-7.319166985563849e-17
	-5.795845207546381e-14
	3.003941634740042e-06
	3.612228680077948e-04
	4.964876609970234e-05
	1.577714104644192e-01

 73	7.300000000000004e-01
	-1.098101461647039e-14
	-7.540359103461854e-17
	-5.812104421698249e-14
	3.150694494498698e-06
	3.849038110311874e-04
	5.337798898142982e-05
	1.577718650411675e-01

 74	7.400000000000004e-01
	-1.098347530368110e-14
	-7.768980464428117e-17
	-5.827981776649682e-14
	3.303903073855853e-06
	4.097411374893154e-04
	5.734972505603866e-05
	1.577723491788388e-01

 75	7.500000000000004e-01
	-1.098742676958369e-14
	-8.005313007374821e-17
	-5.843481611167321e-14
	3.463848343040825e-06
	4.357549147268129e-04
	6.157563373642558e-05
	1.577728642979578e-01

 76	7.600000000000005e-01
	-1.099283435019374e-14
	-8.249650723611173e-17
	-5.858608331633389e-14
	3.630828135938749e-06
	4.629624977483781e-04
	6.606756109722739e-05
	1.577734118417525e-01

 77	7.700000000000005e-01
	-1.099966360499738e-14
	-8.502300226473208e-17
	-5.873366406037978e-14
	3.805158868557187e-06
	4.913783187037790e-04
	7.083751165551696e-05
	1.577739932727230e-01

 78	7.800000000000005e-01
	-1.100788033189863e-14
	-8.763581349952392e-17
	-5.887760358129531e-14
	3.987177474485329e-06
	5.210136884708136e-04
	7.589761810573982e-05
	1.577746100689687e-01

 79	7.900000000000005e-01
	-1.101745058097733e-14
	-9.033827777867234e-17
	-5.901794761726472e-14
	4.177243585140667e-06
	5.518766128556574e-04
	8.126010914290868e-05
	1.577752637202774e-01

 80	8.000000000000005e-01
	-1.102834066706529e-14
	-9.313387705200393e-17
	-5.915474235192330e-14
	4.375741986289001e-06
	5.839716258538842e-04
	8.693727553294674e-05
	1.577759557239989e-01

 81	8.100000000000005e-01
	-1.104051718115099e-14
	-9.602624533312806e-17
	-5.928803436076185e-14
	4.583085386569960e-06
	6.172996422944627e-04
	9.294143461293191e-05
	1.577766875807392e-01

 82	8.200000000000005e-01
	-1.105394700062231e-14
	-9.901917600836036e-17
	-5.941787055919933e-14
	4.799717538659975e-06
	6.518578320231746e-04
	9.928489342643884e-05
	1.577774607898701e-01

 83	8.300000000000005e-01
	-1.106859729835899e-14
	-1.021166295213853e-16
	-5.954429815233287e-14
	5.026116759372079e-06
	6.876395175716684e-04
	1.059799107197086e-04
	1.577782768449187e-01

 84	8.400000000000005e-01
	-1.108443555068640e-14
	-1.053227414536186e-16
	-5.966736458637090e-14
	5.262799901565766e-06
	7.246340970057724e-04
	1.130386580426062e-04
	1.577791372288253e-01

 85	8.500000000000005e-01
	-1.110142954420265e-14
	-1.086418310212553e-16
	-5.978711750175168e-14
	5.510326838382203e-06
	7.628269933542157e-04
	1.204731802137969e-04
	1.577800434091381e-01

 86	8.600000000000005e-01
	-1.111954738149205e-14
	-1.120784100110798e-16
	-5.990360468794398e-14
	5.769305529227151e-06
	8.021996316906192e-04
	1.282953554219571e-04
	1.577809968331504e-01

 87	8.700000000000006e-01
	-1.113875748573730e-14
	-1.156371921782445e-16
	-6.001687403992613e-14
	6.040397747326233e-06
	8.427294445817800e-04
	1.365168552437378e-04
	1.577819989230346e-01

 88	8.800000000000006e-01
	-1.115902860424314e-14
	-1.193231031304271e-16
	-6.012697351633362e-14
	6.324325560853789e-06
	8.843899062296203e-04
	1.451491048643913e-04
	1.577830510709839e-01

 89	8.900000000000006e-01
	-1.118032981088524e-14
	-1.231412907239316e-16
	-6.023395109926353e-14
	6.621878673916718e-06
	9.271505952283856e-04
	1.542032437881644e-04
	1.577841546344360e-01

 90	9.000000000000006e-01
	-1.120263050749516e-14
	-1.270971359986979e-16
	-6.033785475572215e-14
	6.933922750457507e-06
	9.709772854396865e-04
	1.636900873226605e-04
	1.577853109313558e-01

 91	9.100000000000006e-01
	-1.122590042419508e-14
	-1.311962646803703e-16
	-6.043873240069808e-14
	7.261408863896069e-06
	1.015832064061872e-03
	1.736200891141783e-04
	1.577865212356633e-01

 92	9.200000000000006e-01
	-1.125010961869404e-14
	-1.354445592790319e-16
	-6.053663186184085e-14
	7.605384238631990e-06
	1.061673475544652e-03
	1.840033049996419e-04
	1.577877867728300e-01

 93	9.300000000000006e-01
	-1.127522847455598e-14
	-1.398481718156176e-16
	-6.063160084572411e-14
	7.967004477054751e-06
	1.108456689580505e-03
	1.948493584250628e-04
	1.577891087156388e-01

 94	9.400000000000006e-01
	-1.130122769845126e-14
	-1.444135372084364e-16
	-6.072368690566930e-14
	8.347547498280192e-06
	1.156133690998028e-03
	2.061674076606717e-04
	1.577904881801820e-01

 95	9.500000000000006e-01
	-1.132807831640155e-14
	-1.491473873537604e-16
	-6.081293741110267e-14
	8.748429453432199e-06
	1.204653488994145e-03
	2.179661150191129e-04
	1.577919262220979e-01

 96	9.600000000000006e-01
	-1.135575166902635e-14
	-1.540567659359738e-16
	-6.089939951842076e-14
	9.171222928098959e-06
	1.253962342776617e-03
	2.302536182555455e-04
	1.577934238330720e-01

 97	9.700000000000006e-01
	-1.138421940580044e-14
	-1.591490440043160e-16
	-6.098312014333228e-14
	9.617677797036980e-06
	1.304004000348838e-03
	2.430375042974336e-04
	1.577949819376237e-01

 98	9.800000000000006e-01
	-1.141345347832879e-14
	-1.644319363548543e-16
	-6.106414593464803e-14
	1.008974516098129e-05
	1.354719946857704e-03
	2.563247854175093e-04
	1.577966013901955e-01

 99	9.900000000000007e-01
	-1.144342613264538e-14
	-1.699135187579432e-16
	-6.114252324948541e-14
	1.058960487259881e-05
	1.406049658642742e-03
	2.701218779261332e-04
	1.577982829725497e-01

 100	1.000000000000001e+00
	-1.147410990054080e-14
	-1.756022460730118e-16
	-6.121829812985546e-14
	1.111969725065225e-05
	1.457930858869363e-03
	2.844345834193124e-04
	1.578000273914760e-01

 101	1.010000000000001e+00
	-1.150547758992251e-14
	-1.815069712941765e-16
	-6.129151628059740e-14
	1.168275969127247e-05
	1.510299770398344e-03
	2.992680725763001e-04
	1.578018352768153e-01

 102	1.020000000000001e+00
	-1.153750227421067e-14
	-1.876369655717436e-16
	-6.136222304862607e-14
	1.228186901637449e-05
	1.563091361331975e-03
	3.146268714561265e-04
	1.578037071797846e-01

 103	1.030000000000001e+00
	-1.157015728077051e-14
	-1.940019392562574e-16
	-6.143046340345577e-14
	1.292049055586906e-05
	1.616239578478133e-03
	3.305148501958345e-04
	1.578056435716054e-01

 104	1.040000000000001e+00
	-1.160341617838171e-14
	-2.006120640132866e-16
	-6.149628191896397e-14
	1.360253514733722e-05
	1.669677563777570e-03
	3.469352139646482e-04
	1.578076448424025e-01

 105	1.050000000000001e+00
	-1.163725276374310e-14
	-2.074779960586053e-16
	-6.155972275635771e-14
	1.433242545999814e-05
	1.723337848535851e-03
	3.638904959777892e-04
	1.578097113003511e-01

 106	1.060000000000001e+00
	-1.167164104701105e-14
	-2.146109005647765e-16
	-6.162082964830310e-14
	1.511517331576151e-05
	1.777152520076803e-03
	3.813825523210075e-04
	1.578118431710595e-01

 107	1.070000000000001e+00
	-1.170655523636652e-14
	-2.220224772914654e-16
	-6.167964588418220e-14
	1.595646999645785e-05
	1.831053355174554e-03
	3.994125582819167e-04
	1.578140405971161e-01

 108	1.080000000000001e+00
	-1.174196972160703e-14
	-2.297249874928557e-16
	-6.173621429643513e-14
	1.686279190133670e-05
	1.884971914309791e-03
	4.179810058263211e-04
	1.578163036377913e-01

 109	1.090000000000001e+00
	-1.177785905675689e-14
	-2.377312821565271e-16
	-6.179057724794992e-14
	1.784152436152285e-05
	1.938839590417365e-03
	4.370877017965017e-04
	1.578186322688246e-01

 110	1.100000000000001e+00
	-1.181419794168785e-14
	-2.460548316288547e-16
	-6.184277662046076e-14
	1.890110693722887e-05
	1.992587605330381e-03
	4.567317663429746e-04
	1.578210263822357e-01

 111	1.110000000000001e+00
	-1.185096120274294e-14
	-2.547097566824361e-16
	-6.189285380391300e-14
	2.005120412706029e-05
	2.046146946567885e-03
	4.769116310307530e-04
	1.578234857860977e-01

 112	1.120000000000001e+00
	-1.188812377235329e-14
	-2.637108610811275e-16
	-6.194084968675689e-14
	2.130290611191680e-05
	2.099448236451694e-03
	4.976250359845380e-04
	1.578260102041909e-01

 113	1.130000000000001e+00
	-1.192566066763900e-14
	-2.730736656980733e-16
	-6.198680464712863e-14
	2.266896493846528e-05
	2.152421524776469e-03
	5.188690253536292e-04
	1.578285992754568e-01

 114	1.140000000000001e+00
	-1.196354696798265e-14
	-2.828144442413393e-16
	-6.203075854487917e-14
	2.416407240854297e-05
	2.204995995416263e-03
	5.406399402856495e-04
	1.578312525531471e-01

 115	1.150000000000001e+00
	-1.200175779156534e-14
	-2.929502606405482e-16
	-6.207275071441030e-14
	2.580518685368060e-05
	2.257099576380958e-03
	5.629334084979084e-04
	1.578339695035479e-01

 116	1.160000000000001e+00
	-1.204026827085450e-14
	-3.034990081459824e-16
	-6.211281995827774e-14
	2.761191688296317e-05
	2.308658442032025e-03
	5.857443294265397e-04
	1.578367495041818e-01

 117	1.170000000000001e+00
	-1.207905352703230e-14
	-3.144794501891308e-16
	-6.215100454152190e-14
	2.960697099869042e-05
	2.359596395593824e-03
	6.090668538178188e-04
	1.578395918413158e-01

 118	1.180000000000001e+00
	-1.211808864335566e-14
	-3.259112630501309e-16
	-6.218734218668467e-14
	3.181668251183629e-05
	2.409834120021631e-03
	6.328943565068351e-04
	1.578424957066504e-01

 119	1.190000000000001e+00
	-1.215734863743839e-14
	-3.378150803732765e-16
	-6.222187006947418e-14
	3.427161919239814e-05
	2.459288286130109e-03
	6.572194010129045e-04
	1.578454601930105e-01

 120	1.200000000000001e+00
	-1.219680843244915e-14
	-3.502125395663074e-16
	-6.225462481503529e-14
	3.700728614794595e-05
	2.507870509279120e-03
	6.820336944809157e-04
	1.578484842888545e-01

 121	1.210000000000001e+00
	-1.223644282721925e-14
	-3.631263301125934e-16
	-6.228564249478770e-14
	4.006492792345623e-05
	2.555486150785353e-03
	7.073280314329085e-04
	1.578515668714200e-01

 122	1.220000000000001e+00
	-1.227622646526023e-14
	-3.765802438172301e-16
	-6.231495862378981e-14
	4.349243086984770e-05
	2.602032968894188e-03
	7.330922247956799e-04
	1.578547066983319e-01

 123	1.230000000000001e+00
	-1.231613380269159e-14
	-3.905992269988545e-16
	-6.234260815858836e-14
	4.734531820311899e-05
	2.647399638401643e-03
	7.593150227845516e-04
	1.578579023974654e-01

 124	1.240000000000001e+00
	-1.235613907508760e-14
	-4.052094346277106e-16
	-6.236862549551147e-14
	5.168781623334802e-05
	2.691464180186730e-03
	7.859840105173289e-04
	1.578611524549722e-01

 125	1.250000000000001e+00
	-1.239621626325528e-14
	-4.204382863979698e-16
	-6.239304446936288e-14
	5.659394895286325e-05
	2.734092374806383e-03
	8.130854957990103e-04
	1.578644552013556e-01

 126	1.260000000000001e+00
	-1.243633905796667e-14
	-4.363145247078898e-16
	-6.241589835247143e-14
	6.214858727356839e-05
	2.775136280906444e-03
	8.406043794786394e-04
	1.578678087956883e-01

 127	1.270000000000001e+00
	-1.247648082367550e-14
	-4.528682745054483e-16
	-6.243721985404760e-14
	6.844833665511376e-05
	2.814433041962891e-03
	8.685240122850264e-04
	1.578712112081633e-01

 128	1.280000000000001e+00
	-1.251661456126281e-14
	-4.701311049394693e-16
	-6.245704111979494e-14
	7.560209180049554e-05
	2.851804244246747e-03
	8.968260422638467e-04
	1.578746602015155e-01

 129	1.290000000000001e+00
	-1.255671286986876e-14
	-4.881360927378108e-16
	-6.247539373171718e-14
	8.373102149310572e-05
	2.887056180922928e-03
	9.254902600158573e-04
	1.578781533121661e-01

 130	1.300000000000001e+00
	-1.259674790788669e-14
	-5.069178872144246e-16
	-6.249230870805477e-14
	9.296767787874183e-05
	2.919981469816801e-03
	9.544944529489207e-04
	1.578816878324662e-01

 131	1.310000000000001e+00
	-1.263669135321475e-14
	-5.265127767871116e-16
	-6.250781650327619e-14
	1.034538685096907e-04
	2.950362541208471e-03
	9.838142846014396e-04
	1.578852607960113e-01

 132	1.320000000000001e+00
	-1.267651436288125e-14
	-5.469587568674359e-16
	-6.252194700803850e-14
	1.153369136044439e-04
	2.977977516829597e-03
	1.013423220346577e-03
	1.578888689685883e-01

 133	1.330000000000001e+00
	-1.271618753218483e-14
	-5.682955989628657e-16
	-6.253472954902553e-14
	1.287639739903320e-04
	3.002608886974419e-03
	1.043292525540958e-03
	1.578925088479576e-01

 134	1.340000000000001e+00
	-1.275568085351049e-14
	-5.905649208079206e-16
	-6.254619288856445e-14
	1.438743206502352e-04
	3.024055100118695e-03
	1.073391364948977e-03
	1.578961766759877e-01

 135	1.350000000000001e+00
	-1.279496367500070e-14
	-6.138102573130376e-16
	-6.255636522392721e-14
	1.607897557521974e-04
	3.042144671162067e-03
	1.103687031055037e-03
	1.578998684664835e-01

 136	1.360000000000001e+00
	-1.283400465927232e-14
	-6.380771320828204e-16
	-6.256527418623574e-14
	1.796038775247445e-04
	3.056751715042966e-03
	1.134145321569023e-03
	1.579035800511897e-01

 137	1.370000000000001e+00
	-1.287277174237452e-14
	-6.634131292044153e-16
	-6.257294683891546e-14
	2.003714253694478e-04
	3.067811050283202e-03
	1.164731071671369e-03
	1.579073071446666e-01

 138	1.380000000000001e+00
	-1.291123209317820e-14
	-6.898679649379884e-16
	-6.257940967568060e-14
	2.230993815260941e-04
	3.075330434787508e-03
	1.195408824835326e-03
	1.579110454260301e-01

 139	1.390000000000001e+00
	-1.294935207338485e-14
	-7.174935588524947e-16
	-6.258468861807701e-14
	2.477416273280019e-04
	3.079397394342623e-03
	1.226143600701374e-03
	1.579147906325311e-01

 140	1.400000000000001e+00
	-1.298709719834310e-14
	-7.463441038450909e-16
	-6.258880901264502e-14
	2.741985856753474e-04
	3.080178705578776e-03
	1.256901695507558e-03
	1.579185386570827e-01

 141	1.410000000000001e+00
	-1.302443209888300e-14
	-7.764761343695195e-16
	-6.259179562778307e-14
	3.023224173713496e-04
	3.077911884345668e-03
	1.287651437194562e-03
	1.579222856402717e-01

 142	1.420000000000001e+00
	-1.306132048441999e-14
	-8.079485920891565e-16
	-6.259367265038325e-14
	3.319271912332851e-04
	3.072889678093006e-03
	1.318363818976852e-03
	1.579260280475567e-01

 143	1.430000000000001e+00
	-1.309772510764893e-14
	-8.408228880740343e-16
	-6.259446368227579e-14
	3.628023931188060e-04
	3.065440023970268e-03
	1.349012952851963e-03
	1.579297627245093e-01

 144	1.440000000000001e+00
	-1.313360773123528e-14
	-8.751629605809621e-16
	-6.259419173646335e-14
	3.947275428857692e-04
	3.055904709173595e-03
	1.379576313695790e-03
	1.579334869265558e-01

 145	1.450000000000001e+00
	-1.316892909700179e-14
	-9.110353273905215e-16
	-6.259287923307142e-14
	4.274857224593182e-04
	3.044619843331131e-03
	1.410034777013211e-03
	1.579371983235621e-01

 146	1.460000000000001e+00
	-1.320364889819465e-14
	-9.485091316133908e-16
	-6.259054799489706e-14
	4.608743901650730e-04
	3.031900384245824e-03
	1.440372480592085e-03
	1.579408949829518e-01

 147	1.470000000000001e+00
	-1.323772575548776e-14
	-9.876561798129925e-16
	-6.258721924241447e-14
	4.947126898778144e-04
	3.018029753860588e-03
	1.470576556753656e-03
	1.579445753370838e-01

 148	1.480000000000001e+00
	-1.327111719743743e-14
	-1.028550971216067e-15
	-6.258291358809918e-14
	5.288452563539669e-04
	3.003254465483246e-03
	1.500636786447195e-03
	1.579482381410827e-01

 149	1.490000000000001e+00
	-1.330377964614848e-14
	-1.071270716693972e-15
	-6.257765102994504e-14
	5.631430714131140e-04
	2.987782924367053e-03
	1.530545221496440e-03
	1.579518824268066e-01

 150	1.500000000000001e+00
	-1.333566840894683e-14
	-1.115895346099802e-15
	-6.257145094407951e-14
	5.975021834722263e-04
	2.971787226437778e-03
	1.560295810916464e-03
	1.579555074573001e-01

 151	1.510000000000001e+00
	-1.336673767689019e-14
	-1.162507502443784e-15
	-6.256433207640769e-14
	6.318411168503506e-04
	2.955406781900824e-03
	1.589884055264257e-03
	1.579591126846686e-01

 152	1.520000000000001e+00
	-1.339694053098118e-14
	-1.211192521287990e-15
	-6.255631253324486e-14
	6.660976635351175e-04
	2.938752792131027e-03
	1.619306702169187e-03
	1.579626977129878e-01

 153	1.530000000000001e+00
	-1.342622895697894e-14
	-1.262038393647076e-15
	-6.254740977091971e-14