Title: ** sch_path: /home/andylithia/openmpw/project-yatsuhashi-chip1/xschem/gmid_test/nmos_test.sch
Date: Sun Jul 17 22:51:45  2022
Plotname: DC transfer characteristic
Flags: real
No. Variables: 8
No. Points: 181
Variables:
	0	v(v-sweep)	voltage
	1	@m.xm1.msky130_fd_pr__nfet_01v8[cgb]	capacitance
	2	@m.xm1.msky130_fd_pr__nfet_01v8[cgd]	capacitance
	3	@m.xm1.msky130_fd_pr__nfet_01v8[cgs]	capacitance
	4	@m.xm1.msky130_fd_pr__nfet_01v8[gds]	admittance
	5	@m.xm1.msky130_fd_pr__nfet_01v8[gm]	admittance
	6	i(@m.xm1.msky130_fd_pr__nfet_01v8[id])	current
	7	v(@m.xm1.msky130_fd_pr__nfet_01v8[vth])	voltage
Values:
 0	0.000000000000000e+00
	-4.074524814179465e-15
	4.307952066948480e-19
	-2.951745781635155e-15
	2.156189144630252e-08
	6.863756153266909e-07
	6.038773094304435e-08
	4.119742521011304e-01

 1	1.000000000000000e-02
	-4.034363273279920e-15
	4.308935214886717e-19
	-3.034798402296319e-15
	2.414027184387879e-08
	7.678926854340013e-07
	6.765157188118437e-08
	4.119742528193340e-01

 2	2.000000000000000e-02
	-3.994239659824505e-15
	4.303717661951277e-19
	-3.119103691042644e-15
	2.702147713952751e-08
	8.589133121398811e-07
	7.577724600034529e-08
	4.119742536227506e-01

 3	3.000000000000000e-02
	-3.954167663205451e-15
	4.291977024487837e-19
	-3.204627928691785e-15
	3.024008565715244e-08
	9.605192999106652e-07
	8.486510290142125e-08
	4.119742545213003e-01

 4	4.000000000000000e-02
	-3.914161620675124e-15
	4.273386940983857e-19
	-3.291334943310583e-15
	3.383444957371200e-08
	1.073912379696681e-06
	9.502689950203018e-08
	4.119742555260351e-01

 5	5.000000000000000e-02
	-3.874236479559201e-15
	4.247617510511972e-19
	-3.379186148854305e-15
	3.784707655834381e-08
	1.200427278261733e-06
	1.063870634930358e-07
	4.119742566492577e-01

 6	6.000000000000000e-02
	-3.834407756728625e-15
	4.214335738199918e-19
	-3.468140593470867e-15
	4.232504487040972e-08
	1.341546247449736e-06
	1.190840946440536e-07
	4.119742579046625e-01

 7	7.000000000000001e-02
	-3.794691495459978e-15
	4.173205984765069e-19
	-3.558155017465968e-15
	4.732045398846220e-08
	1.498915236366190e-06
	1.332721194505265e-07
	4.119742593074893e-01

 8	8.000000000000000e-02
	-3.755104219834949e-15
	4.123890417022447e-19
	-3.649183920863579e-15
	5.289091282177667e-08
	1.674361917050924e-06
	1.491226165790279e-07
	4.119742608746911e-01

 9	9.000000000000000e-02
	-3.715662886849787e-15
	4.066049456162352e-19
	-3.741179640432970e-15
	5.910006750360849e-08
	1.869915806414181e-06
	1.668263328299610e-07
	4.119742626251303e-01

 10	9.999999999999999e-02
	-3.676384836425266e-15
	3.999342220502708e-19
	-3.834092435990465e-15
	6.601817067518723e-08
	2.087830764663702e-06
	1.865954119470491e-07
	4.119742645797803e-01

 11	1.100000000000000e-01
	-3.637287739525932e-15
	3.923426959361998e-19
	-3.927870585719253e-15
	7.372269403563144e-08
	2.330610193863016e-06
	2.086657616167818e-07
	4.119742667619682e-01

 12	1.200000000000000e-01
	-3.598389544614459e-15
	3.837961474653824e-19
	-4.022460490188382e-15
	8.229898574934669e-08
	2.601035310351558e-06
	2.332996874818742e-07
	4.119742691976306e-01

 13	1.300000000000000e-01
	-3.559708422682380e-15
	3.742603526795545e-19
	-4.117806784688901e-15
	9.184097406236847e-08
	2.902196922223330e-06
	2.607888270105983e-07
	4.119742719156016e-01

 14	1.400000000000000e-01
	-3.521262711112365e-15
	3.637011221539684e-19
	-4.213852459444952e-15
	1.024519181760185e-07
	3.237531208555005e-06
	2.914574206959784e-07
	4.119742749479450e-01

 15	1.500000000000000e-01
	-3.483070856638967e-15
	3.520843374372770e-19
	-4.310538987199716e-15
	1.142452070535573e-07
	3.610860071134208e-06
	3.256659633884092e-07
	4.119742783303011e-01

 16	1.600000000000000e-01
	-3.445151357684742e-15
	3.393759849208752e-19
	-4.407806457620194e-15
	1.273452063866254e-07
	4.026436712413365e-06
	3.638152846792754e-07
	4.119742821023065e-01

 17	1.700000000000000e-01
	-3.407522706356173e-15
	3.255421868184858e-19
	-4.505593717914456e-15
	1.418881534175416e-07
	4.488997185392765e-06
	4.063511142424939e-07
	4.119742863080323e-01

 18	1.800000000000000e-01
	-3.370203330389366e-15
	3.105492289510654e-19
	-4.603838519006476e-15
	1.580230986951721e-07
	5.003818761795513e-06
	4.537691959930024e-07
	4.119742909964982e-01

 19	1.900000000000000e-01
	-3.333211535338335e-15
	2.943635850453350e-19
	-4.702477666572094e-15
	1.759128931322340e-07
	5.576786073414635e-06
	5.066210239205772e-07
	4.119742962222353e-01

 20	2.000000000000000e-01
	-3.296565447299370e-15
	2.769519372728702e-19
	-4.801447176201722e-15
	1.957352179270845e-07
	6.214466096356274e-06
	5.655202825743488e-07
	4.119743020459248e-01

 21	2.100000000000000e-01
	-3.260282956462932e-15
	2.582811927757675e-19
	-4.900682431924239e-15
	2.176836540121908e-07
	6.924193166690314e-06
	6.311500864609082e-07
	4.119743085351156e-01

 22	2.200000000000001e-01
	-3.224381661780275e-15
	2.383184959462184e-19
	-5.000118347300908e-15
	2.419687866951228e-07
	7.714165335281076e-06
	7.042711250995387e-07
	4.119743157650236e-01

 23	2.300000000000001e-01
	-3.188878817025039e-15
	2.170312362518651e-19
	-5.099689528278835e-15
	2.688193400691566e-07
	8.593553484542257e-06
	7.857308341336301e-07
	4.119743238194463e-01

 24	2.400000000000001e-01
	-3.153791278520888e-15
	1.943870514223573e-19
	-5.199330436981596e-15
	2.984833345958617e-07
	9.572624734265155e-06
	8.764737276556325e-07
	4.119743327917813e-01

 25	2.500000000000001e-01
	-3.119135454794764e-15
	1.703538258400522e-19
	-5.298975555608508e-15
	3.312292600103968e-07
	1.066288174945451e-05
	9.775530426181097e-07
	4.119743427861743e-01

 26	2.600000000000001e-01
	-3.084927258401571e-15
	1.448996840043405e-19
	-5.398559549615440e-15
	3.673472543851955e-07
	1.187721962028137e-05
	1.090143862641723e-06
	4.119743539188286e-01

 27	2.700000000000001e-01
	-3.051182060150443e-15
	1.179929789669640e-19
	-5.498017429358675e-15
	4.071502788269843e-07
	1.323010200070630e-05
	1.215557905347822e-06
	4.119743663194516e-01

 28	2.800000000000001e-01
	-3.017914645945149e-15
	8.960227566434882e-20
	-5.597284709397139e-15
	4.509752758968048e-07
	1.473775815365615e-05
	1.355260174058517e-06
	4.119743801329130e-01

 29	2.900000000000001e-01
	-2.985139176431808e-15
	5.969632910084544e-20
	-5.696297564671094e-15
	4.991842984610085e-07
	1.641840244029585e-05
	1.510887690692063e-06
	4.119743955210998e-01

 30	3.000000000000001e-01
	-2.952869149626637e-15
	2.824405736423464e-20
	-5.794992982802476e-15
	5.521655943337040e-07
	1.829247759018488e-05
	1.684270541123413e-06
	4.119744126649838e-01

 31	3.100000000000001e-01
	-2.921117366674125e-15
	-4.785490516458080e-21
	-5.893308911795945e-15
	6.103346307950183e-07
	2.038292277743937e-05
	1.877455476173994e-06
	4.119744317669753e-01

 32	3.200000000000001e-01
	-2.889895900863521e-15
	-3.942317183676989e-20
	-5.991184402459692e-15
	6.741350419071860e-07
	2.271546708364715e-05
	2.092732319525838e-06
	4.119744530535175e-01

 33	3.300000000000001e-01
	-2.859216070007496e-15
	-7.569979254452292e-20
	-6.088559744908934e-15
	7.440394805463282e-07
	2.531894832881491e-05
	2.332663436777871e-06
	4.119744767780124e-01

 34	3.400000000000001e-01
	-2.829088412262968e-15
	-1.136461545466393e-19
	-6.185376598564768e-15
	8.205503562737193e-07
	2.822565647533268e-05
	2.600116515921464e-06
	4.119745032240629e-01

 35	3.500000000000001e-01
	-2.799522665449522e-15
	-1.532931078890274e-19
	-6.281578115114086e-15
	9.042004396377099e-07
	3.147169983692087e-05
	2.898300896832468e-06
	4.119745327090615e-01

 36	3.600000000000002e-01
	-2.770527749896699e-15
	-1.946716076842302e-19
	-6.377109053952564e-15
	9.955533132812615e-07
	3.509739113862262e-05
	3.230807663906388e-06
	4.119745655881600e-01

 37	3.700000000000002e-01
	-2.742111754827325e-15
	-2.378127756444853e-19
	-6.471915889692454e-15
	1.095203650385109e-06
	3.914764906472729e-05
	3.601653679516499e-06
	4.119746022586265e-01

 38	3.800000000000002e-01
	-2.714281928260550e-15
	-2.827479660620085e-19
	-6.565946911378113e-15
	1.203777301554390e-06
	4.367240929678487e-05
	4.015329684295054e-06
	4.119746431646036e-01

 39	3.900000000000002e-01
	-2.687044670395527e-15
	-3.295088360668631e-19
	-6.659152313114998e-15
	1.321931172305680e-06
	4.872703719218128e-05
	4.476852521105120e-06
	4.119746888022702e-01

 40	4.000000000000002e-01
	-2.660405530415005e-15
	-3.781274199812637e-19
	-6.751484275881266e-15
	1.450352874871336e-06
	5.437273220722147e-05
	4.991821450909609e-06
	4.119747397254231e-01

 41	4.100000000000002e-01
	-2.634369206627282e-15
	-4.286362075840490e-19
	-6.842897040355005e-15
	1.589760140139409e-06
	6.067691196587419e-05
	5.566478418788851e-06
	4.119747965514323e-01

 42	4.200000000000002e-01
	-2.608939549845955e-15
	-4.810682260924083e-19
	-6.933346970652661e-15
	1.740899978204078e-06
	6.771356157366724e-05
	6.207771995810740e-06
	4.119748599675690e-01

 43	4.300000000000002e-01
	-2.584119569888935e-15
	-5.354571256677221e-19
	-7.022792608936168e-15
	1.904547579212104e-06
	7.556353145419624e-05
	6.923424566710348e-06
	4.119749307376560e-01

 44	4.400000000000002e-01
	-2.559911445062137e-15
	-5.918372682524272e-19
	-7.111194720906152e-15
	2.081504949930314e-06
	8.431476474406874e-05
	7.722002154670703e-06
	4.119750097089750e-01

 45	4.500000000000002e-01
	-2.536316534478761e-15
	-6.502438195481965e-19
	-7.198516332256178e-15
	2.272599285678166e-06
	9.406243324408950e-05
	8.612986074318319e-06
	4.119750978193570e-01

 46	4.600000000000002e-01
	-2.513335393052484e-15
	-7.107128439522352e-19
	-7.284722756217560e-15
	2.478681081890916e-06
	1.049089592345188e-04
	9.606845385105248e-06
	4.119751961043525e-01

 47	4.700000000000003e-01
	-2.490967788992031e-15
	-7.732814022755896e-19
	-7.369781612375775e-15
	2.700621994495729e-06
	1.169638992827395e-04
	1.071510888383152e-05
	4.119753057043554e-01

 48	4.800000000000003e-01
	-2.469212723615712e-15
	-8.379876520786010e-19
	-7.453662836987207e-15
	2.939312463357993e-06
	1.303436656778225e-04
	1.195043513315191e-05
	4.119754278715316e-01

 49	4.900000000000003e-01
	-2.448068453297499e-15
	-9.048709504700449e-19
	-7.536338685068524e-15
	3.195659118120838e-06
	1.451710614985524e-04
	1.332667878027758e-05
	4.119755639763868e-01

 50	5.000000000000002e-01
	-2.427532513350931e-15
	-9.739719592312337e-19
	-7.617783724570707e-15
	3.470581990626228e-06
	1.615746067349508e-04
	1.485895118629503e-05
	4.119757155137601e-01

 51	5.100000000000002e-01
	-2.407601743653958e-15
	-1.045332752140285e-18
	-7.697974822984311e-15
	3.765011562556317e-06
	1.796876354962842e-04
	1.656367317281305e-05
	4.119758841080480e-01

 52	5.200000000000002e-01
	-2.388272315816014e-15
	-1.118996924390510e-18
	-7.776891126753369e-15
	4.079885680747022e-06
	1.996471482779549e-04
	1.845861751171055e-05
	4.119760715174047e-01

 53	5.300000000000002e-01
	-2.369539761688930e-15
	-1.195009704011552e-18
	-7.854514033900636e-15
	4.416146375574081e-06
	2.215924086053682e-04
	2.056293864930721e-05
	4.119762796366879e-01

 54	5.400000000000003e-01
	-2.351399003024806e-15
	-1.273418065223263e-18
	-7.930827160288109e-15
	4.774736619685527e-06
	2.456632801424177e-04
	2.289718708255844e-05
	4.119765104988830e-01

 55	5.500000000000003e-01
	-2.333844382087028e-15
	-1.354270843669711e-18
	-8.005816299953648e-15
	5.156597064968480e-06
	2.719983084856543e-04
	2.548330580590277e-05
	4.119767662747357e-01

 56	5.600000000000003e-01
	-2.316869693025433e-15
	-1.437618853498493e-18
	-8.079469379975280e-15
	5.562662794852677e-06
	3.007325612127394e-04
	2.834460633613148e-05
	4.119770492703938e-01

 57	5.700000000000003e-01
	-2.300468213831895e-15
	-1.523515006273941e-18
	-8.151776410324047e-15
	5.993860126796536e-06
	3.319952500680292e-04
	3.150572201012881e-05
	4.119773619227694e-01

 58	5.800000000000003e-01
	-2.284632738699682e-15
	-1.612014431727908e-18
	-8.222729429168460e-15
	6.451103496068608e-06
	3.659071701002049e-04
	3.499253654449231e-05
	4.119777067924824e-01

 59	5.900000000000003e-01
	-2.269355610617541e-15
	-1.703174600374958e-18
	-8.292322444094344e-15
	6.935292446827250e-06
	4.025780016725160e-04
	3.883208625095094e-05
	4.119780865541557e-01

 60	6.000000000000003e-01
	-2.254628754037973e-15
	-1.797055448035290e-18
	-8.360551369699399e-15
	7.447308750194597e-06
	4.421035320166548e-04
	4.305243481619749e-05
	4.119785039840402e-01

 61	6.100000000000003e-01
	-2.240443707468254e-15
	-1.893719502330747e-18
	-8.427413962015511e-15
	7.988013661817956e-06
	4.845628628070245e-04
	4.768252017281070e-05
	4.119789619448421e-01

 62	6.200000000000003e-01
	-2.226791655842500e-15
	-1.993232011236070e-18
	-8.492909750201616e-15
	8.558245323682342e-06
	5.300156784704836e-04
	5.275197369664437e-05
	4.119794633678370e-01

 63	6.300000000000003e-01
	-2.213663462542899e-15
	-2.095661073789306e-18
	-8.557039965938040e-15
	9.158816307150918e-06
	5.784996560020934e-04
	5.829091274662286e-05
	4.119800112323244e-01

 64	6.400000000000003e-01
	-2.201049700948671e-15
	-2.201077773082851e-18
	-8.619807470938634e-15
	9.790511286873904e-06
	6.300281003625764e-04
	6.432970839042852e-05
	4.119806085426405e-01

 65	6.500000000000004e-01
	-2.188940685401455e-15
	-2.309556311677011e-18
	-8.681216682981187e-15
	1.045408482885702e-05
	6.845878896160838e-04
	7.089873100406427e-05
	4.119812583029889e-01

 66	6.600000000000004e-01
	-2.177326501486307e-15
	-2.421174149599189e-18
	-8.741273500839008e-15
	1.115025927113974e-05
	7.421378104945251e-04
	7.802807726062198e-05
	4.119819634904089e-01

 67	6.700000000000004e-01
	-2.166197035537711e-15
	-2.536012145110186e-18
	-8.799985228477986e-15
	1.187972267265121e-05
	8.026073578917129e-04
	8.574728279715347e-05
	4.119827270263534e-01

 68	6.800000000000004e-01
	-2.155542003290026e-15
	-2.654154698442854e-18
	-8.857360498864162e-15
	1.264312680525632e-05
	8.658960609503715e-04
	9.408502553134886e-05
	4.119835517473252e-01

 69	6.900000000000004e-01
	-2.145350977601779e-15
	-2.775689898738304e-18
	-8.913409197706699e-15
	1.344108516598163e-05
	9.318733841827992e-04
	1.030688251562783e-04
	4.119844403751506e-01

 70	7.000000000000004e-01
	-2.135613415192557e-15
	-2.900709674429499e-18
	-8.968142387441166e-15
	1.427417099097183e-05
	1.000379234961075e-03
	1.127247447403357e-04
	4.119853954874539e-01

 71	7.100000000000004e-01
	-2.126318682340668e-15
	-3.029309947343911e-18
	-9.021572231737195e-15
	1.514291525972139e-05
	1.071225089427903e-03
	1.230771005752769e-04
	4.119864194889553e-01

 72	7.200000000000004e-01
	-2.117456079498335e-15
	-3.161590790822505e-18
	-9.073711920794591e-15
	1.604780468721680e-05
	1.144195728286272e-03
	1.341481864304682e-04
	4.119875145842051e-01

 73	7.300000000000004e-01
	-2.109014864789775e-15
	-3.297656592177680e-18
	-9.124575597671055e-15
	1.698927971228799e-05
	1.219051553012652e-03
	1.459580181780470e-04
	4.119886827523144e-01

 74	7.400000000000004e-01
	-2.100984276365364e-15
	-3.437616219836337e-18
	-9.174178285864894e-15
	1.796773250202884e-05
	1.295531432844693e-03
	1.585241043537957e-04
	4.119899257242782e-01

 75	7.500000000000004e-01
	-2.093353553592787e-15
	-3.581583195543282e-18
	-9.222535818355788e-15
	1.898350500383629e-05
	1.373356014443686e-03
	1.718612476247716e-04
	4.119912449633414e-01

 76	7.600000000000005e-01
	-2.086111957073018e-15
	-3.729675872023593e-18
	-9.269664768287118e-15
	2.003688708759245e-05
	1.452231410357274e-03
	1.859813813693676e-04
	4.119926416488481e-01

 77	7.700000000000005e-01
	-2.079248787475726e-15
	-3.882017616531249e-18
	-9.315582381453947e-15
	2.112811482998023e-05
	1.531853170090755e-03
	2.008934446696787e-04
	4.119941166638881e-01

 78	7.800000000000005e-01
	-2.072753403195012e-15
	-4.038737000735200e-18
	-9.360306510741407e-15
	2.225736900012848e-05
	1.611910429308727e-03
	2.166032980074409e-04
	4.119956705869720e-01

 79	7.900000000000005e-01
	-2.066615236831941e-15
	-4.199967997423139e-18
	-9.403855552639976e-15
	2.342477381014506e-05
	1.692090128764521e-03
	2.331136808857911e-04
	4.119973036878552e-01

 80	8.000000000000005e-01
	-2.060823810515840e-15
	-4.365850184524062e-18
	-9.446248385945576e-15
	2.463039599519708e-05
	1.772081195063975e-03
	2.504242115138702e-04
	4.119990159275229e-01

 81	8.100000000000005e-01
	-2.055368750081165e-15
	-4.536528956981622e-18
	-9.487504312734658e-15
	2.587424428544801e-05
	1.851578580128764e-03
	2.685314276335109e-04
	4.120008069622338e-01

 82	8.200000000000005e-01
	-2.050239798121123e-15
	-4.712155747028770e-18
	-9.527643001687337e-15
	2.715626932639336e-05
	1.930287064816128e-03
	2.874288665773743e-04
	4.120026761514630e-01

 83	8.300000000000005e-01
	-2.045426825943298e-15
	-4.892888253442861e-18
	-9.566684433815065e-15
	2.847636409522650e-05
	2.007924743969193e-03
	3.071071817614701e-04
	4.120046225694328e-01

 84	8.400000000000005e-01
	-2.040919844455985e-15
	-5.078890680381217e-18
	-9.604648850633300e-15
	2.983436484925426e-05
	2.084226124465220e-03
	3.275542920601503e-04
	4.120066450199041e-01

 85	8.500000000000005e-01
	-2.036709014017139e-15
	-5.270333986423310e-18
	-9.641556704804634e-15
	3.123005262871597e-05
	2.158944783769831e-03
	3.487555599092458e-04
	4.120087420537883e-01

 86	8.600000000000005e-01
	-2.032784653280515e-15
	-5.467396144463629e-18
	-9.677428613263467e-15
	3.266315532134511e-05
	2.231855553240051e-03
	3.706939935446763e-04
	4.120109119891834e-01

 87	8.700000000000006e-01
	-2.029137247075646e-15
	-5.670262413131819e-18
	-9.712285312820357e-15
	3.413335028046959e-05
	2.302756207132237e-03
	3.933504685137302e-04
	4.120131529332693e-01

 88	8.800000000000006e-01
	-2.025757453360463e-15
	-5.879125620430485e-18
	-9.746147618231275e-15
	3.564026747311139e-05
	2.371468654222961e-03
	4.167039634894168e-04
	4.120154628056550e-01

 89	8.900000000000006e-01
	-2.022636109286520e-15
	-6.094186460314962e-18
	-9.779036382706226e-15
	3.718349312019763e-05
	2.437839643525828e-03
	4.407318054647112e-04
	4.120178393626294e-01

 90	9.000000000000006e-01
	-2.019764236417999e-15
	-6.315653802958477e-18
	-9.810972460821359e-15
	3.876257377821721e-05
	2.501741008304030e-03
	4.654099195859927e-04
	4.120202802218791e-01

 91	9.100000000000006e-01
	-2.017133045146367e-15
	-6.543745019477653e-18
	-9.841976673789400e-15
	4.037702080097981e-05
	2.563069483112272e-03
	4.907130791836151e-04
	4.120227828872217e-01

 92	9.200000000000006e-01
	-2.014733938342880e-15
	-6.778686321920768e-18
	-9.872069777035650e-15
	4.202631511189179e-05
	2.621746136775820e-03
	5.166151519492179e-04
	4.120253447729557e-01

 93	9.300000000000006e-01
	-2.012558514291281e-15
	-7.020713119350948e-18
	-9.901272430019397e-15
	4.370991221155596e-05
	2.677715469991658e-03
	5.430893386702395e-04
	4.120279632274783e-01

 94	9.400000000000006e-01
	-2.010598568942810e-15
	-7.270070390891037e-18
	-9.929605168235167e-15
	4.542724734257396e-05
	2.730944229701347e-03
	5.701084014385786e-04
	4.120306355558618e-01

 95	9.500000000000006e-01
	-2.008846097535064e-15
	-7.527013076633498e-18
	-9.957088377323237e-15
	4.717774073308984e-05
	2.781419993717623e-03
	5.976448787801449e-04
	4.120333590411210e-01

 96	9.600000000000006e-01
	-2.007293295615849e-15
	-7.791806487350848e-18
	-9.983742269214849e-15
	4.896080284264854e-05
	2.829149578539399e-03
	6.256712856850434e-04
	4.120361309640073e-01

 97	9.700000000000006e-01
	-2.005932559512007e-15
	-8.064726733991569e-18
	-1.000958686023464e-14
	5.077583953807530e-05
	2.874157321161654e-03
	6.541602970373372e-04
	4.120389486211489e-01

 98	9.800000000000006e-01
	-2.004756486282308e-15
	-8.346061177983321e-18
	-1.003464195108084e-14
	5.262225713294148e-05
	2.916483282297343e-03
	6.830849134342826e-04
	4.120418093414497e-01

 99	9.900000000000007e-01
	-2.003757873192351e-15
	-8.636108903413897e-18
	-1.005892710860201e-14
	5.449946723138848e-05
	2.956181414100454e-03
	7.124186088369015e-04
	4.120447105006891e-01

 100	1.000000000000001e+00
	-2.002929716748055e-15
	-8.935181212212372e-18
	-1.008246164928853e-14
	5.640689132524038e-05
	2.993317730519454e-03
	7.421354598989470e-04
	4.120476495343133e-01

 101	1.010000000000001e+00
	-2.002265211323011e-15
	-9.243602143503144e-18
	-1.010526462439692e-14
	5.834396510206208e-05
	3.027968513097943e-03
	7.722102571749136e-04
	4.120506239484383e-01

 102	1.020000000000001e+00
	-2.001757747413453e-15
	-9.561709018365100e-18
	-1.012735480662525e-14
	6.031014243076112e-05
	3.060218579617531e-03
	8.026185987075039e-04
	4.120536313290932e-01

 103	1.030000000000001e+00
	-2.001400909553203e-15
	-9.889853011285726e-18
	-1.014875067825905e-14
	6.230489900016953e-05
	3.090159637649326e-03
	8.333369667408021e-04
	4.120566693498099e-01

 104	1.040000000000001e+00
	-2.001188473919416e-15
	-1.022839974966454e-17
	-1.016947042070773e-14
	6.432773559452638e-05
	3.117888740006474e-03
	8.643427884993318e-04
	4.120597357776377e-01

 105	1.050000000000001e+00
	-2.001114405658222e-15
	-1.057772994279026e-17
	-1.018953190535375e-14
	6.637818099769886e-05
	3.143506854390407e-03
	8.956144821182727e-04
	4.120628284776742e-01

 106	1.060000000000001e+00
	-2.001172855958187e-15
	-1.093824004178304e-17
	-1.020895268563798e-14
	6.845579452516022e-05
	3.167117555280129e-03
	9.271314889104324e-04
	4.120659454162574e-01

 107	1.070000000000001e+00
	-2.001358158897577e-15
	-1.131034293207087e-17
	-1.022774999030691e-14
	7.056016818910072e-05
	3.188825842376806e-03
	9.588742932162333e-04
	4.120690846629254e-01

 108	1.080000000000001e+00
	-2.001664828090202e-15
	-1.169446866004798e-17
	-1.024594071774964e-14
	7.269092850751684e-05
	3.208737086705027e-03
	9.908244311090484e-04
	4.120722443912765e-01

 109	1.090000000000001e+00
	-2.002087553152951e-15
	-1.209106519564618e-17
	-1.026354143135461e-14
	7.484773797267256e-05
	3.226956102785477e-03
	1.022964489224831e-03
	4.120754228788499e-01

 110	1.100000000000001e+00
	-2.002621196016665e-15
	-1.250059923263788e-17
	-1.028056835581884e-14
	7.703029619798674e-05
	3.243586343110737e-03
	1.055278094957512e-03
	4.120786185061497e-01

 111	1.110000000000001e+00
	-2.003260787100756e-15
	-1.292355702857906e-17
	-1.029703737434421e-14
	7.923834076519653e-05
	3.258729209443422e-03
	1.087749899214718e-03
	4.120818297549397e-01

 112	1.120000000000001e+00
	-2.004001521370319e-15
	-1.336044528640063e-17
	-1.031296402665883e-14
	8.147164779565340e-05
	3.272483474171215e-03
	1.120365552866735e-03
	4.120850552059114e-01

 113	1.130000000000001e+00
	-2.004838754293365e-15
	-1.381179207975288e-17
	-1.032836350780304e-14
	8.373003227088450e-05
	3.284944804049325e-03
	1.153111677949031e-03
	4.120882935358367e-01

 114	1.140000000000001e+00
	-2.005767997714374e-15
	-1.427814782431842e-17
	-1.034325066762293e-14
	8.601334812819841e-05
	3.296205378087337e-03
	1.185975834598966e-03
	4.120915435142784e-01

 115	1.150000000000001e+00
	-2.006784915659289e-15
	-1.476008629740965e-17
	-1.035764001091615e-14
	8.832148815718304e-05
	3.306353591044532e-03
	1.218946484623002e-03
	4.120948040000131e-01

 116	1.160000000000001e+00
	-2.007885320085566e-15
	-1.525820570829767e-17
	-1.037154569817794e-14
	9.065438372259457e-05
	3.315473833939117e-03
	1.252012952505454e-03
	4.120980739371453e-01

 117	1.170000000000001e+00
	-2.009065166590187e-15
	-1.577312982182009e-17
	-1.038498154689707e-14
	9.301200433833431e-05
	3.323646343105057e-03
	1.285165384583994e-03
	4.121013523510830e-01

 118	1.180000000000001e+00
	-2.010320550086953e-15
	-1.630550913795710e-17
	-1.039796103335439e-14
	9.539435711617756e-05
	3.330947109608057e-03
	1.318394707034306e-03
	4.121046383443752e-01

 119	1.190000000000001e+00
	-2.011647700463835e-15
	-1.685602213018445e-17
	-1.041049729487859e-14
	9.780148611159653e-05
	3.337447841220895e-03
	1.351692583226198e-03
	4.121079310924951e-01

 120	1.200000000000001e+00
	-2.013042978229736e-15
	-1.742537654555307e-17
	-1.042260313251641e-14
	1.002334715875739e-04
	3.343215969627826e-03
	1.385051370938088e-03
	4.121112298396043e-01

 121	1.210000000000001e+00
	-2.014502870159261e-15
	-1.801431076958165e-17
	-1.043429101407662e-14
	1.026904292157140e-04
	3.348314696050366e-03
	1.418464079846094e-03
	4.121145338943475e-01

 122	1.220000000000001e+00
	-2.016023984943294e-15
	-1.862359525919700e-17
	-1.044557307750917e-14
	1.051725092323436e-04
	3.352803069040657e-03
	1.451924329638948e-03
	4.121178426257091e-01

 123	1.230000000000001e+00
	-2.017603048852068e-15
	-1.925403404710542e-17
	-1.045646113458330e-14
	1.076798955656322e-04
	3.356736088754562e-03
	1.485426309050288e-03
	4.121211554589586e-01

 124	1.240000000000001e+00
	-2.019236901416863e-15
	-1.990646632113368e-17
	-1.046696667483000e-14
	1.102128049481374e-04
	3.360164832580455e-03
	1.518964736046049e-03
	4.121244718717167e-01

 125	1.250000000000001e+00
	-2.020922491135509e-15
	-2.058176808224237e-17
	-1.047710086971665e-14
	1.127714860275897e-04
	3.363136597549647e-03
	1.552534819356359e-03
	4.121277913901416e-01

 126	1.260000000000001e+00
	-2.022656871206296e-15
	-2.128085388507139e-17
	-1.048687457702307e-14
	1.153562184872036e-04
	3.365695055481588e-03
	1.586132221498295e-03
	4.121311135852787e-01

 127	1.270000000000001e+00
	-2.024437195294098e-15
	-2.200467866505534e-17
	-1.049629834539037e-14
	1.179673121853690e-04
	3.367880417315777e-03
	1.619753023398168e-03
	4.121344380695546e-01

 128	1.280000000000001e+00
	-2.026260713331968e-15
	-2.275423965631175e-17
	-1.050538241901551e-14
	1.206051063232168e-04
	3.369729603547821e-03
	1.653393690688846e-03
	4.121377644934521e-01

 129	1.290000000000001e+00
	-2.028124767360836e-15
	-2.353057840468806e-17
	-1.051413674246613e-14
	1.232699686473129e-04
	3.371276418117341e-03
	1.687051041729240e-03
	4.121410925423345e-01

 130	1.300000000000001e+00
	-2.030026787409294e-15
	-2.433478288052593e-17
	-1.052257096559204e-14
	1.259622946935787e-04
	3.372551723488754e-03
	1.720722217368454e-03
	4.121444219334630e-01

 131	1.310000000000001e+00
	-2.031964287415117e-15
	-2.516798969588785e-17
	-1.053069444851064e-14
	1.286825070774976e-04
	3.373583615022844e-03
	1.754404652456498e-03
	4.121477524131795e-01

 132	1.320000000000001e+00
	-2.033934861189451e-15
	-2.603138643117173e-17
	-1.053851626664586e-14
	1.314310548347395e-04
	3.374397593057909e-03
	1.788096049086261e-03
	4.121510837542534e-01

 133	1.330000000000001e+00
	-2.035936178424283e-15
	-2.692621407622030e-17
	-1.054604521580064e-14
	1.342084128154716e-04
	3.375016731404971e-03
	1.821794351536793e-03
	4.121544157534099e-01

 134	1.340000000000001e+00
	-2.037965980743374e-15
	-2.785376959121734e-17
	-1.055328981724489e-14
	1.370150811349152e-04
	3.375461841215359e-03
	1.855497722876780e-03
	4.121577482290099e-01

 135	1.350000000000001e+00
	-2.040022077796329e-15
	-2.881540859284055e-17
	-1.056025832280180e-14
	1.398515846820318e-04
	3.375751629400989e-03
	1.889204523177480e-03
	4.121610810188974e-01

 136	1.360000000000001e+00
	-2.042102343395325e-15
	-2.981254817131289e-17
	-1.056695871991653e-14
	1.427184726876669e-04
	3.375902850981953e-03
	1.922913289277370e-03
	4.121644139784029e-01

 137	1.370000000000001e+00
	-2.044204711693320e-15
	-3.084666984417709e-17
	-1.057339873669246e-14
	1.456163183530081e-04
	3.375930454903983e-03
	1.956622716035520e-03
	4.121677469784817e-01

 138	1.380000000000001e+00
	-2.046327173402687e-15
	-3.191932265276046e-17
	-1.057958584688111e-14
	1.485457185387763e-04
	3.375847723012151e-03
	1.990331639006584e-03
	4.121710799040024e-01

 139	1.390000000000001e+00
	-2.048467772052625e-15
	-3.303212640746787e-17
	-1.058552727481284e-14
	1.515072935152490e-04
	3.375666401990176e-03
	2.024039018468096e-03
	4.121744126521717e-01

 140	1.400000000000001e+00
	-2.050624600283486e-15
	-3.418677508816988e-17
	-1.059123000025637e-14
	1.545016867729199e-04
	3.375396828178035e-03
	2.057743924729267e-03
	4.121777451310749e-01

 141	1.410000000000001e+00
	-2.052795796176063e-15
	-3.538504040607239e-17
	-1.059670076319584e-14
	1.575295648933680e-04
	3.375048045266813e-03
	2.091445524650054e-03
	4.121810772583482e-01

 142	1.420000000000001e+00
	-2.054979539613519e-15
	-3.662877553357313e-17
	-1.060194606851513e-14
	1.605916174797384e-04
	3.374627914941237e-03
	2.125143069299722e-03
	4.121844089599533e-01

 143	1.430000000000001e+00
	-2.057174048673542e-15
	-3.791991900866221e-17
	-1.060697219057970e-14
	1.636885571460937e-04
	3.374143220598020e-03
	2.158835882685020e-03
	4.121877401690672e-01

 144	1.440000000000001e+00
	-2.059377576048103e-15
	-3.926049882050317e-17
	-1.061178517770712e-14
	1.668211195647944e-04
	3.373599764314710e-03
	2.192523351479677e-03
	4.121910708250658e-01

 145	1.450000000000001e+00
	-2.061588405488144e-15
	-4.065263668282938e-17
	-1.061639085651775e-14
	1.699900635710206e-04
	3.373002457280094e-03
	2.226204915688958e-03
	4.121944008725930e-01

 146	1.460000000000001e+00
	-2.063804848270302e-15
	-4.209855250176383e-17
	-1.062079483615809e-14
	1.731961713234800e-04
	3.372355403924562e-03
	2.259880060184946e-03
	4.121977302607391e-01

 147	1.470000000000001e+00
	-2.066025239682817e-15
	-4.360056904462252e-17
	-1.062500251238942e-14
	1.764402485203822e-04
	3.371661980009665e-03
	2.293548307051240e-03
	4.122010589422677e-01

 148	1.480000000000001e+00
	-2.068247935527636e-15
	-4.516111681611228e-17
	-1.062901907153532e-14
	1.797231246697283e-04
	3.370924904949406e-03
	2.327209208677830e-03
	4.122043868729434e-01

 149	1.490000000000001e+00
	-2.070471308635731e-15
	-4.678273914817228e-17
	-1.063284949428183e-14
	1.830456534130354e-04
	3.370146308645000e-03
	2.360862341550186e-03
	4.122077140109104e-01

 150	1.500000000000001e+00
	-2.072693745392756e-15
	-4.846809750943010e-17
	-1.063649855932455e-14
	1.864087129016331e-04
	3.369327793118609e-03
	2.394507300679028e-03
	4.122110403161521e-01

 151	1.510000000000001e+00
	-2.074913642271989e-15
	-5.021997703993892e-17
	-1.063997084685765e-14
	1.898132062247650e-04
	3.368470489232512e-03
	2.428143694620522e-03
	4.122143657499862e-01

 152	1.520000000000001e+00
	-2.077129402371857e-15
	-5.204129231640113e-17
	-1.064327074189993e-14
	1.932600618887652e-04
	3.367575108777212e-03
	2.461771141039030e-03
	4.122176902746316e-01

 153	1.530000000000001e+00
	-2.079339431955315e-15
	-5.393509335257524e-17
	-1.064640243745359e-14
	1.967502343466914e-04
	3.366641992207381e-03