Title: ** sch_path: /home/andylithia/openmpw/project-yatsuhashi-chip1/xschem/gmid_test/nmos_test.sch
Date: Sun Jul 17 22:51:45  2022
Plotname: DC transfer characteristic
Flags: real
No. Variables: 8
No. Points: 181
Variables:
	0	v(v-sweep)	voltage
	1	@m.xm1.msky130_fd_pr__nfet_01v8[cgb]	capacitance
	2	@m.xm1.msky130_fd_pr__nfet_01v8[cgd]	capacitance
	3	@m.xm1.msky130_fd_pr__nfet_01v8[cgs]	capacitance
	4	@m.xm1.msky130_fd_pr__nfet_01v8[gds]	admittance
	5	@m.xm1.msky130_fd_pr__nfet_01v8[gm]	admittance
	6	i(@m.xm1.msky130_fd_pr__nfet_01v8[id])	current
	7	v(@m.xm1.msky130_fd_pr__nfet_01v8[vth])	voltage
Values:
 0	0.000000000000000e+00
	-7.936043177443240e-15
	-3.073478014946668e-18
	-1.368128031521379e-14
	2.056416499968966e-08
	7.062600972537645e-07
	8.416760197073967e-08
	2.202993339705696e-01

 1	1.000000000000000e-02
	-7.846817409261506e-15
	-3.160196676212428e-18
	-1.388934796886867e-14
	2.229201066548472e-08
	7.676425482574579e-07
	9.153282134962589e-08
	2.202993348392175e-01

 2	2.000000000000000e-02
	-7.758602839906328e-15
	-3.249390053326483e-18
	-1.409741229070043e-14
	2.415814657102257e-08
	8.344060822471278e-07
	9.953837997279083e-08
	2.202993357833890e-01

 3	3.000000000000000e-02
	-7.671421314688183e-15
	-3.341130401884078e-18
	-1.430539229356182e-14
	2.617284919900315e-08
	9.070417029738456e-07
	1.082405052947796e-07
	2.202993368097152e-01

 4	4.000000000000000e-02
	-7.585294164948913e-15
	-3.435492213903093e-18
	-1.451320714627144e-14
	2.834707303101908e-08
	9.860888260926320e-07
	1.177005727511272e-07
	2.202993379254403e-01

 5	5.000000000000000e-02
	-7.500242165281118e-15
	-3.532552294453466e-18
	-1.472077628794180e-14
	3.069248671063520e-08
	1.072140470730758e-06
	1.279856153798210e-07
	2.202993391384681e-01

 6	6.000000000000000e-02
	-7.416285492438962e-15
	-3.632389841234618e-18
	-1.492801954145968e-14
	3.322151035912364e-08
	1.165849021673630e-06
	1.391688881655161e-07
	2.202993404574415e-01

 7	7.000000000000001e-02
	-7.333443686043208e-15
	-3.735086527227146e-18
	-1.513485722579800e-14
	3.594735401711227e-08
	1.267932618710379e-06
	1.513304930921472e-07
	2.202993418918088e-01

 8	8.000000000000000e-02
	-7.251735611176986e-15
	-3.840726586549904e-18
	-1.534121026684097e-14
	3.888405717999469e-08
	1.379182233471095e-06
	1.645580714739381e-07
	2.202993434519079e-01

 9	9.000000000000000e-02
	-7.171179422961411e-15
	-3.949396903660279e-18
	-1.554700030641221e-14
	4.204652938951985e-08
	1.500469497766483e-06
	1.789475707566465e-07
	2.202993451490587e-01

 10	9.999999999999999e-02
	-7.091792533192544e-15
	-4.061187106041504e-18
	-1.575214980920357e-14
	4.545059183855721e-08
	1.632755350920605e-06
	1.946040936385749e-07
	2.202993469956583e-01

 11	1.100000000000000e-01
	-7.013591579113305e-15
	-4.176189660528019e-18
	-1.595658216731125e-14
	4.911301994066779e-08
	1.777099576765965e-06
	2.116428380519212e-07
	2.202993490052962e-01

 12	1.200000000000000e-01
	-6.936592394385527e-15
	-4.294499973426411e-18
	-1.616022180209717e-14
	5.305158681083234e-08
	1.934671303729485e-06
	2.301901372659081e-07
	2.202993511928783e-01

 13	1.300000000000000e-01
	-6.860809982318596e-15
	-4.416216494597960e-18
	-1.636299426310621e-14
	5.728510759858241e-08
	2.106760543642518e-06
	2.503846101189359e-07
	2.202993535747565e-01

 14	1.400000000000000e-01
	-6.786258491402915e-15
	-4.541440825674829e-18
	-1.656482632378151e-14
	6.183348460981216e-08
	2.294790846404306e-06
	2.723784321513435e-07
	2.202993561688845e-01

 15	1.500000000000000e-01
	-6.712951193186677e-15
	-4.670277832592282e-18
	-1.676564607373674e-14
	6.671775314886888e-08
	2.500333148246534e-06
	2.963387391855739e-07
	2.202993589949820e-01

 16	1.600000000000000e-01
	-6.640900462525800e-15
	-4.802835762626328e-18
	-1.696538300735802e-14
	7.196012800808488e-08
	2.725120890895145e-06
	3.224491756766051e-07
	2.202993620747124e-01

 17	1.700000000000000e-01
	-6.570117760227790e-15
	-4.939226366135014e-18
	-1.716396810852521e-14
	7.758405052778471e-08
	2.971066487197169e-06
	3.509116009208421e-07
	2.202993654318942e-01

 18	1.800000000000000e-01
	-6.500613618100910e-15
	-5.079565023214008e-18
	-1.736133393125983e-14
	8.361423614607617e-08
	3.240279205550201e-06
	3.819479669525261e-07
	2.202993690927147e-01

 19	1.900000000000000e-01
	-6.432397626411184e-15
	-5.223970875482463e-18
	-1.755741467612383e-14
	9.007672235437192e-08
	3.535084540495387e-06
	4.158023826565174e-07
	2.202993730859760e-01

 20	2.000000000000000e-01
	-6.365478423740711e-15
	-5.372566963229272e-18
	-1.775214626221280e-14
	9.699891697168958e-08
	3.858045129857418e-06
	4.527433792666880e-07
	2.202993774433644e-01

 21	2.100000000000000e-01
	-6.299863689232022e-15
	-5.525480368160365e-18
	-1.794546639460572e-14
	1.044096466483662e-07
	4.211983269566670e-06
	4.930663929785716e-07
	2.202993821997359e-01

 22	2.200000000000001e-01
	-6.235560137194743e-15
	-5.682842361996780e-18
	-1.813731462715211e-14
	1.123392055079492e-07
	4.600005065501717e-06
	5.370964808591691e-07
	2.202993873934499e-01

 23	2.300000000000001e-01
	-6.172573514042202e-15
	-5.844788561189085e-18
	-1.832763242049845e-14
	1.208194038347463e-07
	5.025526247068162e-06
	5.851912865594922e-07
	2.202993930667077e-01

 24	2.400000000000001e-01
	-6.110908597518110e-15
	-6.011459088023580e-18
	-1.851636319527322e-14
	1.298836167138490e-07
	5.492299649496203e-06
	6.377442724959800e-07
	2.202993992659403e-01

 25	2.500000000000001e-01
	-6.050569198165383e-15
	-6.182998738411555e-18
	-1.870345238037112e-14
	1.395668325305193e-07
	6.004444350735040e-06
	6.951882351340154e-07
	2.202994060422204e-01

 26	2.600000000000001e-01
	-5.991558162982208e-15
	-6.359557156663266e-18
	-1.888884745629561e-14
	1.499057012366649e-07
	6.566476424085665e-06
	7.579991197443288e-07
	2.202994134517166e-01

 27	2.700000000000001e-01
	-5.933877381203428e-15
	-6.541289017570305e-18
	-1.907249799353835e-14
	1.609385822938224e-07
	7.183341239128435e-06
	8.267001504744562e-07
	2.202994215561767e-01

 28	2.800000000000001e-01
	-5.877527792139070e-15
	-6.728354216126137e-18
	-1.925435568599279e-14
	1.727055922047243e-07
	7.860447210875653e-06
	9.018662907425089e-07
	2.202994304234547e-01

 29	2.900000000000001e-01
	-5.822509394995965e-15
	-6.920918065240033e-18
	-1.943437437941736e-14
	1.852486515492800e-07
	8.603700860282333e-06
	9.841290477786662e-07
	2.202994401280848e-01

 30	3.000000000000001e-01
	-5.768821260602864e-15
	-7.119151501811965e-18
	-1.961251009498209e-14
	1.986115314457684e-07
	9.419543008209099e-06
	1.074181633568738e-06
	2.202994507518832e-01

 31	3.100000000000001e-01
	-5.716461544954687e-15
	-7.323231301555230e-18
	-1.978872104794895e-14
	2.128398993643521e-07
	1.031498587965807e-05
	1.172784492450975e-06
	2.202994623846045e-01

 32	3.200000000000001e-01
	-5.665427504487273e-15
	-7.533340302974215e-18
	-1.996296766155287e-14
	2.279813642280002e-07
	1.129765084570985e-05
	1.280771203141057e-06
	2.202994751246404e-01

 33	3.300000000000001e-01
	-5.615715512989930e-15
	-7.749667640923486e-18
	-2.013521257616643e-14
	2.440855207455995e-07
	1.237580647729324e-05
	1.399054759969797e-06
	2.202994890797530e-01

 34	3.400000000000001e-01
	-5.567321080060131e-15
	-7.972408990196221e-18
	-2.030542065384512e-14
	2.612039929337891e-07
	1.355840652807296e-05
	1.528634234576221e-06
	2.202995043678769e-01

 35	3.500000000000001e-01
	-5.520238871001791e-15
	-8.201766819614286e-18
	-2.047355897836499e-14
	2.793904767982927e-07
	1.485512740385446e-05
	1.670601815173428e-06
	2.202995211179402e-01

 36	3.600000000000002e-01
	-5.474462728066272e-15
	-8.437950657112765e-18
	-2.063959685087685e-14
	2.987007821622723e-07
	1.627640461363157e-05
	1.826150215766595e-06
	2.202995394707357e-01

 37	3.700000000000002e-01
	-5.429985692934165e-15
	-8.681177366338966e-18
	-2.080350578131239e-14
	3.191928736491825e-07
	1.783346763360172e-05
	1.996580442333723e-06
	2.202995595798500e-01

 38	3.800000000000002e-01
	-5.386800030333988e-15
	-8.931671435312370e-18
	-2.096525947569022e-14
	3.409269108511166e-07
	1.953837255118251e-05
	2.183309896969701e-06
	2.202995816126220e-01

 39	3.900000000000002e-01
	-5.344897252693783e-15
	-9.189665277720458e-18
	-2.112483381947838e-14
	3.639652877410660e-07
	2.140403179251994e-05
	2.387880794343363e-06
	2.202996057511162e-01

 40	4.000000000000002e-01
	-5.304268145721919e-15
	-9.455399547448676e-18
	-2.128220685717781e-14
	3.883726714194432e-07
	2.344424017562475e-05
	2.611968857539533e-06
	2.202996321931760e-01

 41	4.100000000000002e-01
	-5.264902794812588e-15
	-9.729123466985399e-18
	-2.143735876830158e-14
	4.142160403225518e-07
	2.567369647378868e-05
	2.857392252487170e-06
	2.202996611534617e-01

 42	4.200000000000002e-01
	-5.226790612173566e-15
	-1.001109517036199e-17
	-2.159027183992841e-14
	4.415647220633845e-07
	2.810801962212226e-05
	3.126120711752207e-06
	2.202996928645422e-01

 43	4.300000000000002e-01
	-5.189920364574169e-15
	-1.030158206133278e-17
	-2.174093043601652e-14
	4.704904311246984e-07
	3.076375865600044e-05
	3.420284789573539e-06
	2.202997275779705e-01

 44	4.400000000000002e-01
	-5.154280201613569e-15
	-1.060086118752870e-17
	-2.188932096366679e-14
	5.010673066806939e-07
	3.365839543603878e-05
	3.742185180724002e-06
	2.202997655654076e-01

 45	4.500000000000002e-01
	-5.119857684411031e-15
	-1.090921963136369e-17
	-2.203543183652979e-14
	5.333719508883659e-07
	3.681033919231100e-05
	4.094302026203505e-06
	2.202998071196907e-01

 46	4.600000000000002e-01
	-5.086639814623010e-15
	-1.122695491850142e-17
	-2.217925343555014e-14
	5.674834680625620e-07
	4.023891191317243e-05
	4.479304119043231e-06
	2.202998525559582e-01

 47	4.700000000000003e-01
	-5.054613063693334e-15
	-1.155437544474892e-17
	-2.232077806724773e-14
	6.034835052320216e-07
	4.396432361376095e-05
	4.900057913789055e-06
	2.202999022126793e-01

 48	4.800000000000003e-01
	-5.023763402247176e-15
	-1.189180092227061e-17
	-2.245999991973140e-14
	6.414562946665024e-07
	4.800763654823765e-05
	5.359636233705017e-06
	2.202999564527067e-01

 49	4.900000000000003e-01
	-4.994076329541472e-15
	-1.223956284607749e-17
	-2.259691501664354e-14
	6.814886990699022e-07
	5.239071748043867e-05
	5.861326560615571e-06
	2.203000156642343e-01

 50	5.000000000000002e-01
	-4.965536902888946e-15
	-1.259800498178466e-17
	-2.273152116923089e-14
	7.236702602504110e-07
	5.713617720171710e-05
	6.408638783798731e-06
	2.203000802617313e-01

 51	5.100000000000002e-01
	-4.938129766975810e-15
	-1.296748387569347e-17
	-2.286381792673590e-14
	7.680932522082985e-07
	6.226729658412850e-05
	7.005312276709885e-06
	2.203001506867590e-01

 52	5.200000000000002e-01
	-4.911839182997367e-15
	-1.334836938829774e-17
	-2.299380652529975e-14
	8.148527397241632e-07
	6.780793858290141e-05
	7.655322163801775e-06
	2.203002274087249e-01

 53	5.300000000000002e-01
	-4.886649057539817e-15
	-1.374104525238300e-17
	-2.312148983556489e-14
	8.640466436876156e-07
	7.378244575516961e-05
	8.362884634596229e-06
	2.203003109254920e-01

 54	5.400000000000003e-01
	-4.862542971140304e-15
	-1.414590965693936e-17
	-2.324687230916053e-14
	9.157758145771457e-07
	8.021552304217397e-05
	9.132461158711173e-06
	2.203004017638947e-01

 55	5.500000000000003e-01
	-4.839504206461707e-15
	-1.456337585818189e-17
	-2.336995992425047e-14
	9.701441156886762e-07
	8.713210576906376e-05
	9.968761454043863e-06
	2.203005004800648e-01

 56	5.600000000000003e-01
	-4.817515776022719e-15
	-1.499387281903019e-17
	-2.349076013031672e-14
	1.027258517911254e-06
	9.455721304841104e-05
	1.087674506099502e-05
	2.203006076596279e-01

 57	5.700000000000003e-01
	-4.796560449428062e-15
	-1.543784587848390e-17
	-2.360928179234724e-14
	1.087229208065626e-06
	1.025157870283745e-04
	1.186162137875096e-05
	2.203007239177003e-01

 58	5.800000000000003e-01
	-4.776620780047965e-15
	-1.589575745239062e-17
	-2.372553513458964e-14
	1.150169713053410e-06
	1.110325187006797e-04
	1.292884802541617e-05
	2.203008498986974e-01

 59	5.900000000000003e-01
	-4.757679131099931e-15
	-1.636808776720135e-17
	-2.383953168402695e-14
	1.216197042312476e-06
	1.201316612730308e-04
	1.408412739239404e-05
	2.203009862759143e-01

 60	6.000000000000003e-01
	-4.739717701090532e-15
	-1.685533562837264e-17
	-2.395128421372382e-14
	1.285431851336561e-06
	1.298368324099173e-04
	1.533340127496347e-05
	2.203011337508902e-01

 61	6.100000000000003e-01
	-4.722718548578838e-15
	-1.735801922518308e-17
	-2.406080668618518e-14
	1.357998629294984e-06
	1.401708069489884e-04
	1.668284347557555e-05
	2.203012930525362e-01

 62	6.200000000000003e-01
	-4.706663616226756e-15
	-1.787667697380943e-17
	-2.416811419686240e-14
	1.434025914080375e-06
	1.511553020001821e-04
	1.813885029398928e-05
	2.203014649360068e-01

 63	6.300000000000003e-01
	-4.691534754106179e-15
	-1.841186840062142e-17
	-2.427322291793396e-14
	1.513646538419006e-06
	1.628107566240856e-04
	1.970802883891878e-05
	2.203016501813159e-01

 64	6.400000000000003e-01
	-4.677313742236225e-15
	-1.896417506774541e-17
	-2.437615004248093e-14
	1.596997910999008e-06
	1.751561085563412e-04
	2.139718311922001e-05
	2.203018495916849e-01

 65	6.500000000000004e-01
	-4.663982312327727e-15
	-1.953420154306665e-17
	-2.447691372916958e-14
	1.684222336906992e-06
	1.882085706879468e-04
	2.321329789857524e-05
	2.203020639916539e-01

 66	6.600000000000004e-01
	-4.651522168715444e-15
	-2.012257641695962e-17
	-2.457553304754622e-14
	1.775467382013866e-06
	2.019834102185968e-04
	2.516352032582908e-05
	2.203022942248839e-01

 67	6.700000000000004e-01
	-4.639915008462672e-15
	-2.072995336814307e-17
	-2.467202792404165e-14
	1.870886286316169e-06
	2.164937335634637e-04
	2.725513938316834e-05
	2.203025411517520e-01

 68	6.800000000000004e-01
	-4.629142540624959e-15
	-2.135701228120958e-17
	-2.476641908877583e-14
	1.970638431622776e-06
	2.317502802055971e-04
	2.949556322577498e-05
	2.203028056466643e-01

 69	6.900000000000004e-01
	-4.619186504664176e-15
	-2.200446041849641e-17
	-2.485872802324502e-14
	2.074889869379477e-06
	2.477612287394656e-04
	3.189229451883042e-05
	2.203030885951548e-01

 70	7.000000000000004e-01
	-4.610028688005802e-15
	-2.267303364912598e-17
	-2.494897690896770e-14
	2.183813914849735e-06
	2.645320183406590e-04
	3.445290391022314e-05
	2.203033908907436e-01

 71	7.100000000000004e-01
	-4.601650942736394e-15
	-2.336349773818527e-17
	-2.503718857715729e-14
	2.297591814322918e-06
	2.820651888182391e-04
	3.718500180933402e-05
	2.203037134316210e-01

 72	7.200000000000004e-01
	-4.594035201439553e-15
	-2.407664969918468e-17
	-2.512338645948415e-14
	2.416413492507228e-06
	3.003602422573571e-04
	4.009620867315970e-05
	2.203040571171283e-01

 73	7.300000000000004e-01
	-4.587163492172403e-15
	-2.481331921310234e-17
	-2.520759453998126e-14
	2.540478387790242e-06
	3.194135290400405e-04
	4.319412403006324e-05
	2.203044228441229e-01

 74	7.400000000000004e-01
	-4.581017952585582e-15
	-2.557437011750529e-17
	-2.528983730814331e-14
	2.669996383624931e-06
	3.392181607432858e-04
	4.648629449793294e-05
	2.203048115031928e-01

 75	7.500000000000004e-01
	-4.575580843193251e-15
	-2.636070196942507e-17
	-2.537013971326043e-14
	2.805188844932783e-06
	3.597639520594012e-04
	4.998018107678232e-05
	2.203052239748150e-01

 76	7.600000000000005e-01
	-4.570834559800217e-15
	-2.717325168587239e-17
	-2.544852712002453e-14
	2.946289769121979e-06
	3.810373934700502e-04
	5.368312601524047e-05
	2.203056611254365e-01

 77	7.700000000000005e-01
	-4.566761645096072e-15
	-2.801299526607885e-17
	-2.552502526543803e-14
	3.093547062110865e-06
	4.030216559404169e-04
	5.760231956537245e-05
	2.203061238035626e-01

 78	7.800000000000005e-01
	-4.563344799427459e-15
	-2.888094959979053e-17
	-2.559966021705072e-14
	3.247223950644207e-06
	4.256966283934544e-04
	6.174476695041297e-05
	2.203066128358697e-01

 79	7.900000000000005e-01
	-4.560566890760656e-15
	-2.977817436616237e-17
	-2.567245833254527e-14
	3.407600543209769e-06
	4.490389881874149e-04
	6.611725587488921e-05
	2.203071290233601e-01

 80	8.000000000000005e-01
	-4.558410963848764e-15
	-3.070577402805705e-17
	-2.574344622068634e-14
	3.574975553028981e-06
	4.730223042655844e-04
	7.072632490603438e-05
	2.203076731376419e-01

 81	8.100000000000005e-01
	-4.556860248618427e-15
	-3.166489992681372e-17
	-2.581265070364354e-14
	3.749668197933294e-06
	4.976171720888088e-04
	7.557823304924531e-05
	2.203082459173477e-01

 82	8.200000000000005e-01
	-4.555898167791657e-15
	-3.265675248282861e-17
	-2.588009878069556e-14
	3.932020293475792e-06
	5.227913789128759e-04
	8.067893082865030e-05
	2.203088480647086e-01

 83	8.300000000000005e-01
	-4.555508343760177e-15
	-3.368258350757534e-17
	-2.594581759331638e-14
	4.122398557396412e-06
	5.485100974476070e-04
	8.603403316675234e-05
	2.203094802423672e-01

 84	8.400000000000005e-01
	-4.555674604729487e-15
	-3.474369863300414e-17
	-2.600983439164234e-14
	4.321197145597175e-06
	5.747361054461841e-04
	9.164879433497785e-05
	2.203101430704140e-01

 85	8.500000000000005e-01
	-4.556380990150854e-15
	-3.584145986457647e-17
	-2.607217650231463e-14
	4.528840442128251e-06
	6.014300283334946e-04
	9.752808522014586e-05
	2.203108371237074e-01

 86	8.600000000000005e-01
	-4.557611755459751e-15
	-3.697728826453049e-17
	-2.613287129768826e-14
	4.745786128382795e-06
	6.285506016019770e-04
	1.036763731209610e-04
	2.203115629294801e-01

 87	8.700000000000006e-01
	-4.559351376139935e-15
	-3.815266677231936e-17
	-2.619194616639550e-14
	4.972528559797612e-06
	6.560549493913694e-04
	1.100977042542606e-04
	2.203123209652814e-01

 88	8.800000000000006e-01
	-4.561584551131941e-15
	-3.936914316955684e-17
	-2.624942848524917e-14
	5.209602481913929e-06
	6.838988754316457e-04
	1.167956891136349e-04
	2.203131116572337e-01

 89	8.900000000000006e-01
	-4.564296205605681e-15
	-4.062833319715732e-17
	-2.630534559246787e-14
	5.457587121728910e-06
	7.120371623704683e-04
	1.237734907839275e-04
	2.203139353786605e-01

 90	9.000000000000006e-01
	-4.567471493115977e-15
	-4.193192383280638e-17
	-2.635972476220358e-14
	5.717110694936903e-06
	7.404238754300364e-04
	1.310338162748930e-04
	2.203147924490528e-01

 91	9.100000000000006e-01
	-4.571095797160705e-15
	-4.328167673728955e-17
	-2.641259318034902e-14
	5.988855374995172e-06
	7.690126663423885e-04
	1.385789108966546e-04
	2.203156831334021e-01

 92	9.200000000000006e-01
	-4.575154732160227e-15
	-4.467943187867222e-17
	-2.646397792160067e-14
	6.273562776043936e-06
	7.977570735946101e-04
	1.464105556594559e-04
	2.203166076418929e-01

 93	9.300000000000006e-01
	-4.579634143877173e-15
	-4.612711134378536e-17
	-2.651390592775110e-14
	6.572040008663219e-06
	8.266108151708615e-04
	1.545300676412315e-04
	2.203175661299380e-01

 94	9.400000000000006e-01
	-4.584520109294720e-15
	-4.762672334694978e-17
	-2.656240398718324e-14
	6.885166375372947e-06
	8.555280701998712e-04
	1.629383032294571e-04
	2.203185586985542e-01

 95	9.500000000000006e-01
	-4.589798935971897e-15
	-4.918036644638032e-17
	-2.660949871553658e-14
	7.213900781805674e-06
	8.844637461960988e-04
	1.716356641091973e-04
	2.203195853950815e-01

 96	9.600000000000006e-01
	-4.595457160892926e-15
	-5.079023397924544e-17
	-2.665521653751548e-14
	7.559289949747168e-06
	9.133737289105521e-04
	1.806221058377856e-04
	2.203206462141795e-01

 97	9.700000000000006e-01
	-4.601481548828056e-15
	-5.245861872689247e-17
	-2.669958366980734e-14
	7.922477529910007e-06
	9.422151121724538e-04
	1.898971488185581e-04
	2.203217410991241e-01

 98	9.800000000000006e-01
	-4.607859090222226e-15
	-5.418791782231056e-17
	-2.674262610507799e-14
	8.304714225559768e-06
	9.709464054947388e-04
	1.994598914618368e-04
	2.203228699433628e-01

 99	9.900000000000007e-01
	-4.614576998627320e-15
	-5.598063791250864e-17
	-2.678436959701096e-14
	8.707369053157641e-06
	9.995277176236786e-04
	2.093090253011812e-04
	2.203240325923035e-01

 100	1.000000000000001e+00
	-4.621622707693140e-15
	-5.783940058907147e-17
	-2.682483964635597e-14
	9.131941883235463e-06
	1.027920914624535e-03
	2.194428518168119e-04
	2.203252288452884e-01

 101	1.010000000000001e+00
	-4.628983867731482e-15
	-5.976694810078184e-17
	-2.686406148795250e-14
	9.580077424028649e-06
	1.056089751501048e-03
	2.298593007061066e-04
	2.203264584577664e-01

 102	1.020000000000001e+00
	-4.636648341866982e-15
	-6.176614936285215e-17
	-2.690206007869228e-14
	1.005358083222398e-05
	1.083999976737282e-03
	2.405559493330811e-04
	2.203277211435759e-01

 103	1.030000000000001e+00
	-4.644604201787515e-15
	-6.384000627793989e-17
	-2.693886008638580e-14
	1.055443515981258e-05
	1.111619409517152e-03
	2.515300430845262e-04
	2.203290165773619e-01

 104	1.040000000000001e+00
	-4.652839723105958e-15
	-6.599166038481230e-17
	-2.697448587949711e-14
	1.108482087377308e-05
	1.138917989713183e-03
	2.627785163597997e-04
	2.203303443970469e-01

 105	1.050000000000001e+00
	-4.661343380344758e-15
	-6.822439985119397e-17
	-2.700896151771045e-14
	1.164713771643562e-05
	1.165867801035305e-03
	2.742980139237346e-04
	2.203317042063574e-01

 106	1.060000000000001e+00
	-4.670103841553126e-15
	-7.054166682802132e-17
	-2.704231074329352e-14
	1.224402920918361e-05
	1.192443067988910e-03
	2.860849123574208e-04
	2.203330955773536e-01

 107	1.070000000000001e+00
	-4.679109962566734e-15
	-7.294706518302222e-17
	-2.707455697322109e-14
	1.287841014087409e-05
	1.218620127505319e-03
	2.981353413492139e-04
	2.203345180529493e-01

 108	1.080000000000001e+00
	-4.688350780917837e-15
	-7.544436863223978e-17
	-2.710572329202359e-14
	1.355349742518640e-05
	1.244377376276493e-03
	3.104452045779203e-04
	2.203359711493736e-01

 109	1.090000000000001e+00
	-4.697815509403790e-15
	-7.803752928879212e-17
	-2.713583244532519e-14
	1.427284475808716e-05
	1.269695194947981e-03
	3.230101999510426e-04
	2.203374543585656e-01

 110	1.100000000000001e+00
	-4.707493529320461e-15
	-8.073068664886012e-17
	-2.716490683403635e-14
	1.504038155761072e-05
	1.294555850401976e-03
	3.358258389730044e-04
	2.203389671504602e-01

 111	1.110000000000001e+00
	-4.717374383366202e-15
	-8.352817703554273e-17
	-2.719296850916602e-14
	1.586045672278164e-05
	1.318943377397397e-03
	3.488874650307966e-04
	2.203405089751433e-01

 112	1.120000000000001e+00
	-4.727447768221614e-15
	-8.643454352185775e-17
	-2.722003916721912e-14
	1.673788780593141e-05
	1.342843440830443e-03
	3.621902703971805e-04
	2.203420792648672e-01

 113	1.130000000000001e+00
	-4.737703526808766e-15
	-8.945454635477850e-17
	-2.724614014614561e-14
	1.767801625148286e-05
	1.366243179841970e-03
	3.757293117640929e-04
	2.203436774358802e-01

 114	1.140000000000001e+00
	-4.748131640233314e-15
	-9.259317390274274e-17
	-2.727129242180764e-14
	1.868676941225650e-05
	1.389131034933586e-03
	3.894995241308507e-04
	2.203453028900680e-01

 115	1.150000000000001e+00
	-4.758722219411781e-15
	-9.585565414956475e-17
	-2.729551660493196e-14
	1.977073010812338e-05
	1.411496559170943e-03
	4.034957328829646e-04
	2.203469550163798e-01

 116	1.160000000000001e+00
	-4.769465496385752e-15
	-9.924746675813588e-17
	-2.731883293851532e-14
	2.093721453646866e-05
	1.433330214460168e-03
	4.177126639077444e-04
	2.203486331920209e-01

 117	1.170000000000001e+00
	-4.780351815323906e-15
	-1.027743557275877e-16
	-2.734126129565099e-14
	2.219435937239969e-05
	1.454623153794038e-03
	4.321449516022108e-04
	2.203503367834050e-01

 118	1.180000000000001e+00
	-4.791371623211958e-15
	-1.064423426678839e-16
	-2.736282117774554e-14
	2.355121889914724e-05
	1.475366990294071e-03
	4.467871446375153e-04
	2.203520651468300e-01

 119	1.190000000000001e+00
	-4.802515460230250e-15
	-1.102577407158577e-16
	-2.738353171309526e-14
	2.501787297218534e-05
	1.495553553841665e-03
	4.616337093520534e-04
	2.203538176288748e-01

 120	1.200000000000001e+00
	-4.813773949818554e-15
	-1.142271691166915e-16
	-2.740341165579197e-14
	2.660554652608274e-05
	1.515174636120039e-03
	4.766790306534704e-04
	2.203555935665207e-01

 121	1.210000000000001e+00
	-4.825137788425967e-15
	-1.183575684946181e-16
	-2.742247938492951e-14
	2.832674115687576e-05
	1.534221725008933e-03
	4.919174103185744e-04
	2.203573922869314e-01

 122	1.220000000000001e+00
	-4.836597734945158e-15
	-1.226562168361515e-16
	-2.744075290408175e-14
	3.019537902326941e-05
	1.552685729521315e-03
	5.073430625905498e-04
	2.203592131069511e-01

 123	1.230000000000001e+00
	-4.848144599828655e-15
	-1.271307462085399e-16
	-2.745824984102429e-14
	3.222695886690532e-05
	1.570556696893037e-03
	5.229501069868429e-04
	2.203610553322454e-01

 124	1.240000000000001e+00
	-4.859769233885556e-15
	-1.317891602351344e-16
	-2.747498744767221e-14
	3.443872330457654e-05
	1.587823524084782e-03
	5.387325582501200e-04
	2.203629182561219e-01

 125	1.250000000000001e+00
	-4.871462516756574e-15
	-1.366398523481339e-16
	-2.749098260020737e-14
	3.684983563185591e-05
	1.604473666897020e-03
	5.546843134017429e-04
	2.203648011579974e-01

 126	1.260000000000001e+00
	-4.883215345066477e-15
	-1.416916248375274e-16
	-2.750625179936840e-14
	3.948156312523215e-05
	1.620492851205336e-03
	5.707991358954086e-04
	2.203667033015288e-01

 127	1.270000000000001e+00
	-4.895018620252499e-15
	-1.469537087130108e-16
	-2.752081117087813e-14
	4.235746215663955e-05
	1.635864792574779e-03
	5.870706369219120e-04
	2.203686239324140e-01

 128	1.280000000000001e+00
	-4.906863236068290e-15
	-1.524357843932074e-16
	-2.753467646598320e-14
	4.550355825470520e-05
	1.650570932786417e-03
	6.034922539895709e-04
	2.203705622758518e-01

 129	1.290000000000001e+00
	-4.918740065764632e-15
	-1.581480032334282e-16
	-2.754786306208122e-14
	4.894851148230863e-05
	1.664590204670461e-03
	6.200572270037313e-04
	2.203725175337297e-01

 130	1.300000000000001e+00
	-4.930639948948361e-15
	-1.641010098996983e-16
	-2.756038596341102e-14
	5.272375409633595e-05
	1.677898840121042e-03
	6.367585721996657e-04
	2.203744888815466e-01

 131	1.310000000000001e+00
	-4.942553678123047e-15
	-1.703059655925107e-16
	-2.757225980178317e-14
	5.686358341189596e-05
	1.690470240233081e-03
	6.535890544515830e-04
	2.203764754651356e-01

 132	1.320000000000001e+00
	-4.954471984917320e-15
	-1.767745721188138e-16
	-2.758349883732646e-14
	6.140518820325540e-05
	1.702274931012019e-03
	6.705411586919758e-04
	2.203784763972990e-01

 133	1.330000000000001e+00
	-4.966385526008271e-15
	-1.835190968050495e-16
	-2.759411695922876e-14
	6.638858208036527e-05
	1.713280632758132e-03
	6.876070614331632e-04
	2.203804907544530e-01

 134	1.340000000000001e+00
	-4.978284868750573e-15
	-1.905523982375068e-16
	-2.760412768644889e-14
	7.185641254318800e-05
	1.723452475485097e-03
	7.047786036855870e-04
	2.203825175734175e-01

 135	1.350000000000001e+00
	-4.990160476525666e-15
	-1.978879528086852e-16
	-2.761354416837835e-14
	7.785361058469183e-05
	1.732753395768226e-03
	7.220472669071719e-04
	2.203845558485889e-01

 136	1.360000000000001e+00
	-5.002002693828198e-15
	-2.055398820398732e-16
	-2.762237918543093e-14
	8.442684388198740e-05
	1.741144751064784e-03
	7.394041539776250e-04
	2.203866045296970e-01

 137	1.370000000000001e+00
	-5.013801731111840e-15
	-2.135229806405498e-16
	-2.763064514953953e-14
	9.162373823468854e-05
	1.748587184307794e-03
	7.568399775392113e-04
	2.203886625204191e-01

 138	1.380000000000001e+00
	-5.025547649421484e-15
	-2.218527452542150e-16
	-2.763835410453953e-14
	9.949183870619956e-05
	1.755041762731275e-03
	7.743450583343172e-04
	2.203907286781956e-01

 139	1.390000000000001e+00
	-5.037230344843641e-15
	-2.305454038281454e-16
	-2.764551772641929e-14
	1.080772956667524e-04
	1.760471398774433e-03
	7.919093363355605e-04
	2.203928018155407e-01

 140	1.400000000000001e+00
	-5.048839532813034e-15
	-2.396179455307693e-16
	-2.765214732341954e-14
	1.174232830107190e-04
	1.764842536383399e-03
	8.095223974269738e-04
	2.203948807031904e-01

 141	1.410000000000001e+00
	-5.060364732319802e-15
	-2.490881511248895e-16
	-2.765825383596393e-14
	1.275681865902427e-04
	1.768127053100562e-03
	8.271735180698769e-04
	2.203969640753779e-01

 142	1.420000000000001e+00
	-5.071795250068039e-15
	-2.589746236877508e-16
	-2.766384783640670e-14
	1.385436389580102e-04
	1.770304288935350e-03
	8.448517296982121e-04
	2.203990506374308e-01

 143	1.430000000000001e+00
	-5.083120164644421e-15
	-2.692968195493729e-16
	-2.766893952858363e-14
	1.503725179687497e-04
	1.771363071603616e-03
	8.625459034906491e-04
	2.204011390757909e-01

 144	1.440000000000001e+00
	-5.094328310762316e-15
	-2.800750792990478e-16
	-2.767353874715807e-14
	1.630670650535769e-04
	1.771303571415842e-03
	8.802448546744710e-04
	2.204032280703063e-01

 145	1.450000000000001e+00
	-5.105408263656695e-15
	-2.913306586853074e-16
	-2.767765495675487e-14
	1.766273052827504e-04
	1.770138796909412e-03
	8.979374637235018e-04
	2.204053163085468e-01

 146	1.460000000000001e+00
	-5.116348323713240e-15
	-3.030857592080385e-16
	-2.768129725088063e-14
	1.910399563656454e-04
	1.767895543372288e-03
	9.156128099077295e-04
	2.204074025015693e-01

 147	1.470000000000001e+00
	-5.127136501425901e-15
	-3.153635581717376e-16
	-2.768447435063248e-14
	2.062779902854226e-04
	1.764614637160163e-03
	9.332603109029908e-04
	2.204094854003859e-01

 148	1.480000000000001e+00
	-5.137760502789194e-15
	-3.281882379366826e-16
	-2.768719460320046e-14
	2.223009571689265e-04
	1.760350380075992e-03
	9.508698608824705e-04
	2.204115638122714e-01

 149	1.490000000000001e+00
	-5.148207715244257e-15
	-3.415850140704234e-16
	-2.768946598017371e-14
	2.390561013111719e-04
	1.755169183497539e-03
	9.684319589675492e-04
	2.204136366159140e-01

 150	1.500000000000001e+00
	-5.158465194313375e-15
	-3.555801620651830e-16
	-2.769129607566257e-14
	2.564802064532592e-04
	1.749147477620961e-03
	9.859378202897800e-04
	2.204157027745329e-01

 151	1.510000000000001e+00
	-5.168519651073329e-15
	-3.702010422486398e-16
	-2.769269210425190e-14
	2.745020188149169e-04
	1.742369069034796e-03
	1.003379463222942e-03
	2.204177613461558e-01

 152	1.520000000000001e+00
	-5.178357440637698e-15
	-3.854761224755325e-16
	-2.769366089880291e-14
	2.930450296820477e-04
	1.734922182303396e-03
	1.020749768414595e-03
	2.204198114906019e-01

 153	1.530000000000001e+00
	-5.187964551835670e-15
	-4.014349981468926e-16
	-2.769420890812345e-14