Title: ** sch_path: /home/andylithia/openmpw/project-yatsuhashi-chip1/xschem/gmid_test/nmos_test.sch
Date: Tue Jul 19 23:15:45  2022
Plotname: DC transfer characteristic
Flags: real
No. Variables: 8
No. Points: 181
Variables:
	0	v(v-sweep)	voltage
	1	@m.xm1.msky130_fd_pr__nfet_01v8[cgb]	capacitance
	2	@m.xm1.msky130_fd_pr__nfet_01v8[cgd]	capacitance
	3	@m.xm1.msky130_fd_pr__nfet_01v8[cgs]	capacitance
	4	@m.xm1.msky130_fd_pr__nfet_01v8[gds]	admittance
	5	@m.xm1.msky130_fd_pr__nfet_01v8[gm]	admittance
	6	i(@m.xm1.msky130_fd_pr__nfet_01v8[id])	current
	7	v(@m.xm1.msky130_fd_pr__nfet_01v8[vth])	voltage
Values:
 0	0.000000000000000e+00
	-6.921113040442771e-15
	-3.740177402115042e-19
	-1.131626857181240e-14
	3.121823056515846e-08
	1.277435432919158e-06
	1.517925830052780e-07
	2.375447515722422e-01

 1	1.000000000000000e-02
	-6.844225870544368e-15
	-3.834022420341419e-19
	-1.149413226818957e-14
	3.387758060174589e-08
	1.387922523378752e-06
	1.651117797905447e-07
	2.375447526314967e-01

 2	2.000000000000000e-02
	-6.768172337197185e-15
	-3.930010306018281e-19
	-1.167211891966190e-14
	3.675320512989691e-08
	1.507905733540068e-06
	1.795826644351455e-07
	2.375447537829447e-01

 3	3.000000000000000e-02
	-6.692971990356345e-15
	-4.028182200286402e-19
	-1.185015819337271e-14
	3.986147948111860e-08
	1.638216304035795e-06
	1.953042927757461e-07
	2.375447550346198e-01

 4	4.000000000000000e-02
	-6.618643996984799e-15
	-4.128579850388607e-19
	-1.202817971267201e-14
	4.321988276183812e-08
	1.779762787254605e-06
	2.123844133308660e-07
	2.375447563952756e-01

 5	5.000000000000000e-02
	-6.545207101436209e-15
	-4.231245618333040e-19
	-1.220611315854947e-14
	4.684705793749651e-08
	1.933538944347326e-06
	2.309402792153564e-07
	2.375447578744608e-01

 6	6.000000000000000e-02
	-6.472679587162485e-15
	-4.336222489892158e-19
	-1.238388837083037e-14
	5.076287378274104e-08
	2.100632501847399e-06
	2.510995432506561e-07
	2.375447594825878e-01

 7	7.000000000000001e-02
	-6.401079239847110e-15
	-4.443554083953192e-19
	-1.256143544884040e-14
	5.498848862166521e-08
	2.282234856579060e-06
	2.730012453044391e-07
	2.375447612310244e-01

 8	8.000000000000000e-02
	-6.330423312059606e-15
	-4.553284662230591e-19
	-1.273868485124858e-14
	5.954641576693534e-08
	2.479651824269634e-06
	2.967969018136945e-07
	2.375447631321982e-01

 9	9.000000000000000e-02
	-6.260728489520947e-15
	-4.665459139358167e-19
	-1.291556749480153e-14
	6.446059055084503e-08
	2.694315534002587e-06
	3.226517084331575e-07
	2.375447651996782e-01

 10	9.999999999999999e-02
	-6.192010859063989e-15
	-4.780123093369915e-19
	-1.309201485166472e-14
	6.975643882474461e-08
	2.927797577215177e-06
	3.507458678050220e-07
	2.375447674483145e-01

 11	1.100000000000000e-01
	-6.124285878365535e-15
	-4.897322776586261e-19
	-1.326795904509624e-14
	7.546094678621071e-08
	3.181823526213533e-06
	3.812760555648708e-07
	2.375447698943618e-01

 12	1.200000000000000e-01
	-6.057568347520533e-15
	-5.017105126918378e-19
	-1.344333294318376e-14
	8.160273197548566e-08
	3.458288942959457e-06
	4.144570388775307e-07
	2.375447725556153e-01

 13	1.300000000000000e-01
	-5.991872382521224e-15
	-5.139517779602955e-19
	-1.361807025038477e-14
	8.821211526438876e-08
	3.759277003972556e-06
	4.505234630301158e-07
	2.375447754515804e-01

 14	1.400000000000000e-01
	-5.927211390696485e-15
	-5.264609079382032e-19
	-1.379210559662099e-14
	9.532119364205433e-08
	4.087077871345323e-06
	4.897318228895836e-07
	2.375447786036509e-01

 15	1.500000000000000e-01
	-5.863598048159053e-15
	-5.392428093142182e-19
	-1.396537462368877e-14
	1.029639135825113e-07
	4.444209942809062e-06
	5.323626373477133e-07
	2.375447820353013e-01

 16	1.600000000000000e-01
	-5.801044279300237e-15
	-5.523024623023407e-19
	-1.413781406875922e-14
	1.111761447593259e-07
	4.833443115205148e-06
	5.787228462140107e-07
	2.375447857723066e-01

 17	1.700000000000000e-01
	-5.739561238363508e-15
	-5.656449220015890e-19
	-1.430936184475583e-14
	1.199957538523931e-07
	5.257824195263079e-06
	6.291484503598871e-07
	2.375447898429852e-01

 18	1.800000000000000e-01
	-5.679159293120562e-15
	-5.792753198051707e-19
	-1.447995711741102e-14
	1.294626781714169e-07
	5.720704588878330e-06
	6.840074172445819e-07
	2.375447942784757e-01

 19	1.900000000000000e-01
	-5.619848010664848e-15
	-5.931988648611489e-19
	-1.464954037881869e-14
	1.396189987998209e-07
	6.225770394704951e-06
	7.437028752405432e-07
	2.375447991130230e-01

 20	2.000000000000000e-01
	-5.561636145329752e-15
	-6.074208455854380e-19
	-1.481805351731468e-14
	1.505090129416695e-07
	6.777075019373897e-06
	8.086766213937223e-07
	2.375448043843191e-01

 21	2.100000000000000e-01
	-5.504531628730210e-15
	-6.219466312286574e-19
	-1.498543988353444e-14
	1.621793051329030e-07
	7.379074419544274e-06
	8.794129683698575e-07
	2.375448101338585e-01

 22	2.200000000000001e-01
	-5.448541561918957e-15
	-6.367816734981856e-19
	-1.515164435251298e-14
	1.746788169565654e-07
	8.036665059777068e-06
	9.564429573115105e-07
	2.375448164073491e-01

 23	2.300000000000001e-01
	-5.393672209640389e-15
	-6.519315082366124e-19
	-1.531661338171014e-14
	1.880589148800655e-07
	8.755224654372289e-06
	1.040348964119894e-06
	2.375448232551545e-01

 24	2.400000000000001e-01
	-5.339928996657905e-15
	-6.674017571580797e-19
	-1.548029506486118e-14
	2.023734558106722e-07
	9.540655735290538e-06
	1.131769727230427e-06
	2.375448307327829e-01

 25	2.500000000000001e-01
	-5.287316506122809e-15
	-6.831981296435975e-19
	-1.564263918157053e-14
	2.176788499435824e-07
	1.039943205655667e-05
	1.231405825217478e-06
	2.375448389014283e-01

 26	2.600000000000001e-01
	-5.235838479946237e-15
	-6.993264245969726e-19
	-1.580359724258416e-14
	2.340341204550410e-07
	1.133864780759633e-05
	1.340025632482293e-06
	2.375448478285625e-01

 27	2.700000000000001e-01
	-5.185497821128665e-15
	-7.157925323624117e-19
	-1.596312253069328e-14
	2.515009595712754e-07
	1.236606956329454e-05
	1.458471780783733e-06
	2.375448575885883e-01

 28	2.800000000000001e-01
	-5.136296597995279e-15
	-7.326024367050930e-19
	-1.612117013724026e-14
	2.701437805223805e-07
	1.349019084674448e-05
	1.587668153394666e-06
	2.375448682635479e-01

 29	2.900000000000001e-01
	-5.088236050279608e-15
	-7.497622168564488e-19
	-1.627769699421381e-14
	2.900297648691189e-07
	1.472028912130663e-05
	1.728627437134477e-06
	2.375448799439082e-01

 30	3.000000000000001e-01
	-5.041316596992186e-15
	-7.672780496250087e-19
	-1.643266190193833e-14
	3.112289046697634e-07
	1.606648496143990e-05
	1.882459255362975e-06
	2.375448927294033e-01

 31	3.100000000000001e-01
	-4.995537846006257e-15
	-7.851562115743108e-19
	-1.658602555237747e-14
	3.338140389340087e-07
	1.753980307664441e-05
	2.050378902143953e-06
	2.375449067299722e-01

 32	3.200000000000001e-01
	-4.950898605287393e-15
	-8.034030812696902e-19
	-1.673775054808933e-14
	3.578608837917501e-07
	1.915223477977139e-05
	2.233716694118986e-06
	2.375449220667491e-01

 33	3.300000000000001e-01
	-4.907396895690497e-15
	-8.220251415944482e-19
	-1.688780141688386e-14
	3.834480557863306e-07
	2.091680140007552e-05
	2.433927952092323e-06
	2.375449388731742e-01

 34	3.400000000000001e-01
	-4.865029965243203e-15
	-8.410289821376575e-19
	-1.703614462225003e-14
	4.106570876852980e-07
	2.284761804313637e-05
	2.652603618843805e-06
	2.375449572961579e-01

 35	3.500000000000001e-01
	-4.823794304832307e-15
	-8.604213016545297e-19
	-1.718274856963163e-14
	4.395724361867705e-07
	2.495995699477974e-05
	2.891481513182975e-06
	2.375449774973622e-01

 36	3.600000000000002e-01
	-4.783685665206566e-15
	-8.802089106009724e-19
	-1.732758360864551e-14
	4.702814808869412e-07
	2.727030995536194e-05
	3.152458212675608e-06
	2.375449996545591e-01

 37	3.700000000000002e-01
	-4.744699075207613e-15
	-9.003987337436480e-19
	-1.747062203134662e-14
	5.028745138643145e-07
	2.979644817548576e-05
	3.437601548758388e-06
	2.375450239631131e-01

 38	3.800000000000002e-01
	-4.706828861138348e-15
	-9.209978128473272e-19
	-1.761183806665721e-14
	5.374447192298053e-07
	3.255747944603907e-05
	3.749163688074603e-06
	2.375450506375268e-01

 39	3.900000000000002e-01
	-4.670068667177868e-15
	-9.420133094405711e-19
	-1.775120787108555e-14
	5.740881419888621e-07
	3.557390077635342e-05
	4.089594762788810e-06
	2.375450799131320e-01

 40	4.000000000000002e-01
	-4.634411476750344e-15
	-9.634525076619026e-19
	-1.788870951587133e-14
	6.129036455639927e-07
	3.886764547673193e-05
	4.461557000382593e-06
	2.375451120478401e-01

 41	4.100000000000002e-01
	-4.599849634755595e-15
	-9.853228171874945e-19
	-1.802432297070152e-14
	6.539928573329879e-07
	4.246212324833230e-05
	4.867939290015354e-06
	2.375451473240192e-01

 42	4.200000000000002e-01
	-4.566374870569230e-15
	-1.007631776242389e-18
	-1.815803008414825e-14
	6.974601015517140e-07
	4.638225177770723e-05
	5.311872108022334e-06
	2.375451860504545e-01

 43	4.300000000000002e-01
	-4.533978321720232e-15
	-1.030387054696626e-18
	-1.828981456098773e-14
	7.434123190507364e-07
	5.065447823877782e-05
	5.796742709604021e-06
	2.375452285644011e-01

 44	4.400000000000002e-01
	-4.502650558155819e-15
	-1.053596457248302e-18
	-1.841966193656286e-14
	7.919589731233341e-07
	5.530678902563328e-05
	6.326210477369452e-06
	2.375452752337247e-01

 45	4.500000000000002e-01
	-4.472381607003655e-15
	-1.077267926694978e-18
	-1.854755954835864e-14
	8.432119410599341e-07
	6.036870597964545e-05
	6.904222300307039e-06
	2.375453264591034e-01

 46	4.600000000000002e-01
	-4.443160977744208e-15
	-1.101409547295565e-18
	-1.867349650496115e-14
	8.972853908309475e-07
	6.587126733844353e-05
	7.535027839181228e-06
	2.375453826763006e-01

 47	4.700000000000003e-01
	-4.414977687707301e-15
	-1.126029548224134e-18
	-1.879746365257516e-14
	9.542956424782638e-07
	7.184699162707246e-05
	8.223194516562975e-06
	2.375454443584836e-01

 48	4.800000000000003e-01
	-4.387820287809662e-15
	-1.151136307118114e-18
	-1.891945353927581e-14
	1.014361013845387e-06
	7.832982273782850e-05
	8.973622052001848e-06
	2.375455120185450e-01

 49	4.900000000000003e-01
	-4.361676888452841e-15
	-1.176738353722267e-18
	-1.903946037717135e-14
	1.077601650358557e-06
	8.535505450946210e-05
	9.791556345595388e-06
	2.375455862114610e-01

 50	5.000000000000002e-01
	-4.336535185503393e-15
	-1.202844373630726e-18
	-1.915748000265380e-14
	1.144139338667343e-06
	9.295923322302568e-05
	1.068260249681667e-05
	2.375456675365998e-01

 51	5.100000000000002e-01
	-4.312382486280759e-15
	-1.229463212129537e-18
	-1.927350983491346e-14
	1.214097304062881e-06
	1.011800365844650e-04
	1.165273673035782e-05
	2.375457566399918e-01

 52	5.200000000000002e-01
	-4.289205735481043e-15
	-1.256603878140824e-18
	-1.938754883289201e-14
	1.287599991716561e-06
	1.100561279663648e-04
	1.270831698742494e-05
	2.375458542164992e-01

 53	5.300000000000002e-01
	-4.266991540968623e-15
	-1.284275548272169e-18
	-1.949959745084599e-14
	1.364772831920730e-06
	1.196269849353743e-04
	1.385609192987744e-05
	2.375459610118804e-01

 54	5.400000000000003e-01
	-4.245726199371048e-15
	-1.312487570972263e-18
	-1.960965759269028e-14
	1.445741989666852e-06
	1.299327013990496e-04
	1.510320809637868e-05
	2.375460778246779e-01

 55	5.500000000000003e-01
	-4.225395721415823e-15
	-1.341249470795884e-18
	-1.971773256528779e-14
	1.530634099064194e-06
	1.410137630660380e-04
	1.645721494483628e-05
	2.375462055079003e-01

 56	5.600000000000003e-01
	-4.205985856952440e-15
	-1.370570952780559e-18
	-1.982382703084619e-14
	1.619575983282958e-06
	1.529107963251258e-04
	1.792606751439009e-05
	2.375463449704549e-01

 57	5.700000000000003e-01
	-4.187482119605334e-15
	-1.400461906937206e-18
	-1.992794695858019e-14
	1.712694360899083e-06
	1.656642911084093e-04
	1.951812644355311e-05
	2.375464971782658e-01

 58	5.800000000000003e-01
	-4.169869811008915e-15
	-1.430932412857434e-18
	-2.003009957579026e-14
	1.810115539720894e-06
	1.793142988065135e-04
	2.124215508927691e-05
	2.375466631550579e-01

 59	5.900000000000003e-01
	-4.153134044578013e-15
	-1.461992744440319e-18
	-2.013029331850596e-14
	1.911965099389435e-06
	1.939001068423875e-04
	2.310731350510457e-05
	2.375468439827126e-01

 60	6.000000000000003e-01
	-4.137259768772174e-15
	-1.493653374741201e-18
	-2.022853778183395e-14
	2.018367564260674e-06
	2.094598920755511e-04
	2.512314905549271e-05
	2.375470408011841e-01

 61	6.100000000000003e-01
	-4.122231789815324e-15
	-1.525924980945518e-18
	-2.032484367014625e-14
	2.129446068296590e-06
	2.260303557898443e-04
	2.729958346805614e-05
	2.375472548079055e-01

 62	6.200000000000003e-01
	-4.108034793836145e-15
	-1.558818449470811e-18
	-2.041922274723753e-14
	2.245322013908993e-06
	2.436463436018068e-04
	2.964689615600053e-05
	2.375474872566483e-01

 63	6.300000000000003e-01
	-4.094653368398361e-15
	-1.592344881199144e-18
	-2.051168778657379e-14
	2.366114726911207e-06
	2.623404541993583e-04
	3.217570367932235e-05
	2.375477394557770e-01

 64	6.400000000000003e-01
	-4.082072023393581e-15
	-1.626515596844153e-18
	-2.060225252174798e-14
	2.491941109932978e-06
	2.821426413655827e-04
	3.489693525526700e-05
	2.375480127658834e-01

 65	6.500000000000004e-01
	-4.070275211272816e-15
	-1.661342142455218e-18
	-2.069093159725198e-14
	2.622915296839667e-06
	3.030798142435419e-04
	3.782180427570527e-05
	2.375483085967471e-01

 66	6.600000000000004e-01
	-4.059247346596250e-15
	-1.696836295062365e-18
	-2.077774051966701e-14
	2.759148310861401e-06
	3.251754412377755e-04
	4.096177584095991e-05
	2.375486284036352e-01

 67	6.700000000000004e-01
	-4.048972824884252e-15
	-1.733010068464877e-18
	-2.086269560936790e-14
	2.900747729277657e-06
	3.484491633096272e-04
	4.432853037551898e-05
	2.375489736828858e-01

 68	6.800000000000004e-01
	-4.039436040755165e-15
	-1.769875719168229e-18
	-2.094581395283074e-14
	3.047817357611948e-06
	3.729164226902392e-04
	4.793392345011442e-05
	2.375493459667942e-01

 69	6.900000000000004e-01
	-4.030621405339634e-15
	-1.807445752471447e-18
	-2.102711335562501e-14
	3.200456916365030e-06
	3.985881131920419e-04
	5.178994199580223e-05
	2.375497468178429e-01

 70	7.000000000000004e-01
	-4.022513362962523e-15
	-1.845732928710114e-18
	-2.110661229616695e-14
	3.358761743350705e-06
	4.254702583341290e-04
	5.590865715782303e-05
	2.375501778222329e-01

 71	7.100000000000004e-01
	-4.015096407087815e-15
	-1.884750269657834e-18
	-2.118432988030227e-14
	3.522822514689377e-06
	4.535637233984328e-04
	6.030217409879511e-05
	2.375506405828231e-01

 72	7.200000000000004e-01
	-4.008355095523287e-15
	-1.924511065090449e-18
	-2.126028579678192e-14
	3.692724987461936e-06
	4.828639672957326e-04
	6.498257912092229e-05
	2.375511367114652e-01

 73	7.300000000000004e-01
	-4.002274064884986e-15
	-1.965028879517316e-18
	-2.133450027368692e-14
	3.868549766923997e-06
	5.133608397395925e-04
	6.996188453386045e-05
	2.375516678208709e-01

 74	7.400000000000004e-01
	-3.996838044323217e-15
	-2.006317559083578e-18
	-2.140699403585369e-14
	4.050372101032644e-06
	5.450384287042268e-04
	7.525197174738363e-05
	2.375522355159987e-01

 75	7.500000000000004e-01
	-3.992031868514700e-15
	-2.048391238647914e-18
	-2.147778826334423e-14
	4.238261704838737e-06
	5.778749624838112e-04
	8.086453311447333e-05
	2.375528413851412e-01

 76	7.600000000000005e-01
	-3.987840489926642e-15
	-2.091264349040203e-18
	-2.154690455100135e-14
	4.432282617055396e-06
	6.118427698870799e-04
	8.681101308977940e-05
	2.375534869907397e-01

 77	7.700000000000005e-01
	-3.984248990361099e-15
	-2.134951624503946e-18
	-2.161436486912264e-14
	4.632493090825519e-06
	6.469083012060804e-04
	9.310254929923579e-05
	2.375541738600710e-01

 78	7.800000000000005e-01
	-3.981242591789336e-15
	-2.179468110327689e-18
	-2.168019152528274e-14
	4.838945520384892e-06
	6.830322116110627e-04
	9.974991413803683e-05
	2.375549034759200e-01

 79	7.900000000000005e-01
	-3.978806666487522e-15
	-2.224829170671781e-18
	-2.174440712732800e-14
	5.051686404957365e-06
	7.201695075670937e-04
	1.067634575253437e-04
	2.375556772673375e-01

 80	8.000000000000005e-01
	-3.976926746486602e-15
	-2.271050496593704e-18
	-2.180703454756328e-14
	5.270756350830178e-06
	7.582697557675965e-04
	1.141530514444254e-04
	2.375564966006372e-01

 81	8.100000000000005e-01
	-3.975588532350297e-15
	-2.318148114279901e-18
	-2.186809688814670e-14
	5.496190112149665e-06
	7.972773529636080e-04
	1.219280368861761e-04
	2.375573627707008e-01

 82	8.200000000000005e-01
	-3.974777901296643e-15
	-2.366138393487253e-18
	-2.192761744770303e-14
	5.728016670555608e-06
	8.371318539638282e-04
	1.300971737920217e-04
	2.375582769927722e-01

 83	8.300000000000005e-01
	-3.974480914679227e-15
	-2.415038056202180e-18
	-2.198561968916353e-14
	5.966259353348091e-06
	8.777683540191646e-04
	1.386685945594940e-04
	2.375592403948056e-01

 84	8.400000000000005e-01
	-3.974683824845045e-15
	-2.464864185522517e-18
	-2.204212720883598e-14
	6.210935989458508e-06
	9.191179208143745e-04
	1.476497616306952e-04
	2.375602540104763e-01

 85	8.500000000000005e-01
	-3.975373081387274e-15
	-2.515634234768838e-18
	-2.209716370670503e-14
	6.462059102088249e-06
	9.611080703954284e-04
	1.570474296313991e-04
	2.375613187729699e-01

 86	8.600000000000005e-01
	-3.976535336811179e-15
	-2.567366036832458e-18
	-2.215075295795997e-14
	6.719636136489720e-06
	1.003663280587774e-03
	1.668676124677108e-04
	2.375624355096034e-01

 87	8.700000000000006e-01
	-3.978157451632315e-15
	-2.620077813766902e-18
	-2.220291878574435e-14
	6.983669721004548e-06
	1.046705534827833e-03
	1.771155557193618e-04
	2.375636049373538e-01

 88	8.800000000000006e-01
	-3.980226498926600e-15
	-2.673788186630122e-18
	-2.225368503511814e-14
	7.254157959147723e-06
	1.090154888853010e-03
	1.877957145953132e-04
	2.375648276593396e-01

 89	8.900000000000006e-01
	-3.982729768351983e-15
	-2.728516185586088e-18
	-2.230307554822161e-14
	7.531094750240825e-06
	1.133930052385039e-03
	1.989117376400188e-04
	2.375661041623023e-01

 90	9.000000000000006e-01
	-3.985654769661849e-15
	-2.784281260273187e-18
	-2.235111414062680e-14
	7.814470135857709e-06
	1.177948977802791e-03
	2.104664562991984e-04
	2.375674348150676e-01

 91	9.100000000000006e-01
	-3.988989235730429e-15
	-2.841103290448128e-18
	-2.239782457886073e-14
	8.104270669151814e-06
	1.222129447833284e-03
	2.224618803738639e-04
	2.375688198680425e-01

 92	9.200000000000006e-01
	-3.992721125110367e-15
	-2.899002596914693e-18
	-2.244323055908231e-14
	8.400479803993507e-06
	1.266389654489122e-03
	2.348991993125759e-04
	2.375702594536735e-01

 93	9.300000000000006e-01
	-3.996838624142813e-15
	-2.957999952746084e-18
	-2.248735568689283e-14
	8.703078300752593e-06
	1.310648761835794e-03
	2.477787892158004e-04
	2.375717535878689e-01

 94	9.400000000000006e-01
	-4.001330148640260e-15
	-3.018116594811362e-18
	-2.253022345825845e-14
	9.012044645520616e-06
	1.354827445669655e-03
	2.611002253545471e-04
	2.375733021723404e-01

 95	9.500000000000006e-01
	-4.006184345162112e-15
	-3.079374235614763e-18
	-2.257185724152169e-14
	9.327355479574295e-06
	1.398848403808437e-03
	2.748622999393459e-04
	2.375749049977786e-01

 96	9.600000000000006e-01
	-4.011390091903008e-15
	-3.141795075459623e-18
	-2.261228026047664e-14
	9.648986035934629e-06
	1.442636831420084e-03
	2.890630448162827e-04
	2.375765617478310e-01

 97	9.700000000000006e-01
	-4.016936499213349e-15
	-3.205401814947048e-18
	-2.265151557848293e-14
	9.976910579971394e-06
	1.486120856619816e-03
	3.036997587151510e-04
	2.375782720037765e-01

 98	9.800000000000006e-01
	-4.022812909771491e-15
	-3.270217667820568e-18
	-2.268958608359084e-14
	1.031110285113663e-05
	1.529231932425674e-03
	3.187690386314719e-04
	2.375800352498283e-01

 99	9.900000000000007e-01
	-4.029008898426492e-15
	-3.336266374168528e-18
	-2.272651447465007e-14
	1.065153650307683e-05
	1.571905182055222e-03
	3.342668148896110e-04
	2.375818508789689e-01

 100	1.000000000000001e+00
	-4.035514271730280e-15
	-3.403572213996033e-18
	-2.276232324837328e-14
	1.099818553956863e-05
	1.614079695447458e-03
	3.501883894087097e-04
	2.375837181992344e-01

 101	1.010000000000001e+00
	-4.042319067177072e-15
	-3.472160021178721e-18
	-2.279703468732532e-14
	1.135102474393963e-05
	1.655698775781898e-03
	3.665284766765699e-04
	2.375856364403481e-01

 102	1.020000000000001e+00
	-4.049413552168354e-15
	-3.542055197811082e-18
	-2.283067084880814e-14
	1.171003009987081e-05
	1.696710135621520e-03
	3.832812469288263e-04
	2.375876047606254e-01

 103	1.030000000000001e+00
	-4.056788222720262e-15
	-3.613283728962595e-18
	-2.286325355461140e-14
	1.207517920172360e-05
	1.737066043110153e-03
	4.004403710311967e-04
	2.375896222540407e-01

 104	1.040000000000001e+00
	-4.064433801930517e-15
	-3.685872197854769e-18
	-2.289480438159814e-14
	1.244645165278712e-05
	1.776723419393019e-03
	4.179990665707675e-04
	2.375916879573973e-01

 105	1.050000000000001e+00
	-4.072341238221428e-15
	-3.759847801473150e-18
	-2.292534465309476e-14
	1.282382945009825e-05
	1.815643889090395e-03
	4.359501446774803e-04
	2.375938008575035e-01

 106	1.060000000000001e+00
	-4.080501703374363e-15
	-3.835238366628889e-18
	-2.295489543105503e-14
	1.320729735473927e-05
	1.853793786229595e-03
	4.542860571182976e-04
	2.375959598982936e-01

 107	1.070000000000001e+00
	-4.088906590371498e-15
	-3.912072366483326e-18
	-2.298347750896727e-14
	1.359684324676727e-05
	1.891144118524917e-03
	4.729989432331947e-04
	2.375981639878147e-01

 108	1.080000000000001e+00
	-4.097547511059451e-15
	-3.990378937552410e-18
	-2.301111140547407e-14
	1.399245846416794e-05
	1.927670493285828e-03
	4.920806763131115e-04
	2.376004120050315e-01

 109	1.090000000000001e+00
	-4.106416293649110e-15
	-4.070187897205383e-18
	-2.303781735867484e-14
	1.439413812545385e-05
	1.963353008531160e-03
	5.115229090544008e-04
	2.376027028063923e-01

 110	1.100000000000001e+00
	-4.115504980065353e-15
	-4.151529761673921e-18
	-2.306361532108084e-14
	1.480188143574207e-05
	1.998176113093867e-03
	5.313171177612618e-04
	2.376050352321143e-01

 111	1.110000000000001e+00
	-4.124805823160087e-15
	-4.234435764587818e-18
	-2.308852495519337e-14
	1.521569197634417e-05
	2.032128439621710e-03
	5.514546450061813e-04
	2.376074081121528e-01

 112	1.120000000000001e+00
	-4.134311283800915e-15
	-4.318937876056161e-18
	-2.311256562967623e-14
	1.563557797808444e-05
	2.065202614420406e-03
	5.719267404977249e-04
	2.376098202718166e-01

 113	1.130000000000001e+00
	-4.144014027847947e-15
	-4.405068822308755e-18
	-2.313575641609363e-14
	1.606155257872713e-05
	2.097395048054903e-03
	5.927245999443944e-04
	2.376122705370204e-01

 114	1.140000000000001e+00
	-4.153906923029983e-15
	-4.492862105917708e-18
	-2.315811608618613e-14
	1.649363406504282e-05
	2.128705710530152e-03
	6.138394017420045e-04
	2.376147577391450e-01

 115	1.150000000000001e+00
	-4.163983035731379e-15
	-4.582352026618097e-18
	-2.317966310965667e-14
	1.693184610017354e-05
	2.159137894723731e-03
	6.352623413494737e-04
	2.376172807195075e-01

 116	1.160000000000001e+00
	-4.174235627700021e-15
	-4.673573702745992e-18
	-2.320041565244071e-14
	1.737621793707154e-05
	2.188697971548747e-03
	6.569846632537244e-04
	2.376198383334252e-01

 117	1.170000000000001e+00
	-4.184658152686494e-15
	-4.766563093313867e-18
	-2.322039157543400e-14
	1.782678461888456e-05
	2.217395140095010e-03
	6.789976904579768e-04
	2.376224294538903e-01

 118	1.180000000000001e+00
	-4.195244253023798e-15
	-4.861357020746108e-18
	-2.323960843365331e-14
	1.828358716724292e-05
	2.245241175739150e-03
	7.012928514589155e-04
	2.376250529748398e-01

 119	1.190000000000001e+00
	-4.205987756156908e-15
	-4.957993194292110e-18
	-2.325808347580483e-14
	1.874667275947176e-05
	2.272250178937650e-03
	7.238617047066452e-04
	2.376277078140502e-01

 120	1.200000000000001e+00
	-4.216882671130300e-15
	-5.056510234144302e-18
	-2.327583364423784e-14
	1.921609489580829e-05
	2.298438327129171e-03
	7.466959605670994e-04
	2.376303929156491e-01

 121	1.210000000000001e+00
	-4.227923185041988e-15
	-5.156947696278791e-18
	-2.329287557525907e-14
	1.969191355774479e-05
	2.323823631879957e-03
	7.697875008292044e-04
	2.376331072522757e-01

 122	1.220000000000001e+00
	-4.239103659471236e-15
	-5.259346098045568e-18
	-2.330922559978713e-14
	2.017419535865170e-05
	2.348425703115476e-03
	7.931283958190107e-04
	2.376358498269011e-01

 123	1.230000000000001e+00
	-4.250418626887237e-15
	-5.363746944533971e-18
	-2.332489974432475e-14
	2.066301368785791e-05
	2.372265521997357e-03
	8.167109191999769e-04
	2.376386196743134e-01

 124	1.240000000000001e+00
	-4.261862787045643e-15
	-5.470192755733314e-18
	-2.333991373222839e-14
	2.115844884937670e-05
	2.395365223731233e-03
	8.405275605526285e-04
	2.376414158623126e-01

 125	1.250000000000001e+00
	-4.273431003378916e-15
	-5.578727094522975e-18
	-2.335428298525578e-14
	2.166058819647544e-05
	2.417747891332542e-03
	8.645710358384794e-04
	2.376442374926205e-01

 126	1.260000000000001e+00
	-4.285118299386669e-15
	-5.689394595512503e-18
	-2.336802262537187e-14
	2.216952626328601e-05
	2.439437361135372e-03
	8.888342958620164e-04
	2.376470837015195e-01

 127	1.270000000000001e+00
	-4.296919855031199e-15
	-5.802240994764268e-18
	-2.338114747679544e-14
	2.268536489464790e-05
	2.460458040606376e-03
	9.133105328512288e-04
	2.376499536602546e-01

 128	1.280000000000001e+00
	-4.308831003143716e-15
	-5.917313160426438e-18
	-2.339367206826851e-14
	2.320821337536742e-05
	2.480834738822952e-03
	9.379931852817282e-04
	2.376528465752228e-01

 129	1.290000000000001e+00
	-4.320847225845610e-15
	-6.034659124307103e-18
	-2.340561063553193e-14
	2.373818856006604e-05
	2.500592509792837e-03
	9.628759410721900e-04
	2.376557616879556e-01

 130	1.300000000000001e+00
	-4.332964150989336e-15
	-6.154328114422244e-18
	-2.341697712399131e-14
	2.427541500477457e-05
	2.519756508630825e-03
	9.879527392796861e-04
	2.376586982749150e-01

 131	1.310000000000001e+00
	-4.345177548623126e-15
	-6.276370588548921e-18
	-2.342778519155770e-14
	2.482002510141518e-05
	2.538351860467520e-03
	1.013217770422917e-03
	2.376616556471431e-01

 132	1.320000000000001e+00
	-4.357483327483117e-15
	-6.400838268817327e-18
	-2.343804821164850e-14
	2.537215921629791e-05
	2.556403541844367e-03
	1.038665475559488e-03
	2.376646331497692e-01

 133	1.330000000000001e+00
	-4.369877531516143e-15
	-6.527784177381486e-18
	-2.344777927633525e-14
	2.593196583374242e-05
	2.573936274247379e-03
	1.064290544240395e-03
	2.376676301613719e-01

 134	1.340000000000001e+00
	-4.382356336436981e-15
	-6.657262673197959e-18
	-2.345699119962377e-14
	2.649960170591718e-05
	2.590974429347507e-03
	1.090087911460820e-03
	2.376706460932648e-01

 135	1.350000000000001e+00
	-4.394916046322151e-15
	-6.789329489958586e-18
	-2.346569652085557e-14
	2.707523200998008e-05
	2.607541945448903e-03
	1.116052753721890e-03
	2.376736803886602e-01

 136	1.360000000000001e+00
	-4.407553090243494e-15
	-6.924041775209325e-18
	-2.347390750821759e-14
	2.765903051358507e-05
	2.623662254593107e-03
	1.142180484312519e-03
	2.376767325217803e-01

 137	1.370000000000001e+00
	-4.420264018943590e-15
	-7.061458130702784e-18
	-2.348163616234897e-14
	2.825117974981602e-05
	2.639358219729499e-03
	1.168466747914976e-03
	2.376798019968865e-01

 138	1.380000000000001e+00
	-4.433045501555174e-15
	-7.201638654022378e-18
	-2.348889422003461e-14
	2.885187120259665e-05
	2.654652081335375e-03
	1.194907414631594e-03
	2.376828883472578e-01

 139	1.390000000000001e+00
	-4.445894322366671e-15
	-7.344644981523656e-18
	-2.349569315797467e-14
	2.946130550362257e-05
	2.669565412853776e-03
	1.221498573523814e-03
	2.376859911341471e-01

 140	1.400000000000001e+00
	-4.458807377635261e-15
	-7.490540332639558e-18
	-2.350204419662070e-14
	3.007969264186277e-05
	2.684119084311471e-03
	1.248236525748559e-03
	2.376891099456840e-01

 141	1.410000000000001e+00
	-4.471781672449014e-15
	-7.639389555595962e-18
	-2.350795830406944e-14
	3.070725218667673e-05
	2.698333233481186e-03
	1.275117777370320e-03
	2.376922443957656e-01

 142	1.420000000000001e+00
	-4.484814317639663e-15
	-7.791259174586443e-18
	-2.351344620000509e-14
	3.134421352560228e-05
	2.712227243961433e-03
	1.302139031921178e-03
	2.376953941229402e-01

 143	1.430000000000001e+00
	-4.497902526746867e-15
	-7.946217438459736e-18
	-2.351851835968244e-14
	3.199081611788083e-05
	2.725819729562088e-03
	1.329297182774764e-03
	2.376985587892829e-01

 144	1.440000000000001e+00
	-4.511043613034916e-15
	-8.104334370969142e-18
	-2.352318501794309e-14
	3.264730976480184e-05
	2.739128524403342e-03
	1.356589305394138e-03
	2.377017380792663e-01

 145	1.450000000000001e+00
	-4.524234986562910e-15
	-8.265681822643843e-18
	-2.352745617325718e-14
	3.331395489796772e-05
	2.752170678158640e-03
	1.384012649507725e-03
	2.377049316986439e-01

 146	1.460000000000001e+00
	-4.537474151308765e-15
	-8.430333524334587e-18
	-2.353134159178461e-14
	3.399102288660732e-05
	2.764962455898438e-03
	1.411564631261909e-03
	2.377081393733463e-01

 147	1.470000000000001e+00
	-4.550758702347949e-15
	-8.598365142495191e-18
	-2.353485081144843e-14
	3.467879636509536e-05
	2.777519342019585e-03
	1.439242825393586e-03
	2.377113608484068e-01

 148	1.480000000000001e+00
	-4.564086323086653e-15
	-8.769854336265115e-18
	-2.353799314601538e-14
	3.537756958187779e-05
	2.789856047775202e-03
	1.467044957461147e-03
	2.377145958868682e-01

 149	1.490000000000001e+00
	-4.577454782550613e-15
	-8.944880816407840e-18
	-2.354077768917723e-14
	3.608764877103097e-05
	2.801986521949105e-03
	1.494968896167187e-03
	2.377178442687691e-01

 150	1.500000000000001e+00
	-4.590861932728740e-15
	-9.123526406182111e-18
	-2.354321331862832e-14
	3.680935254775072e-05
	2.813923964251321e-03
	1.523012645802553e-03
	2.377211057901112e-01

 151	1.510000000000001e+00
	-4.604305705972351e-15
	-9.305875104208161e-18
	-2.354530870013390e-14
	3.754301232910371e-05
	2.825680841040157e-03
	1.551174338836559e-03
	2.377243802618804e-01

 152	1.520000000000001e+00
	-4.617784112449467e-15
	-9.492013149402308e-18
	-2.354707229158528e-14
	3.828897278144711e-05
	2.837268903007779e-03
	1.579452228674926e-03
	2.377276675090914e-01

 153	1.530000000000001e+00
	-4.631295237654258e-15
	-9.682029088055039e-18
	-2.354851234703705e-14