Title: ** sch_path: /home/andylithia/openmpw/project-yatsuhashi-chip1/xschem/gmid_test/nmos_test.sch
Date: Tue Jul 19 23:15:45  2022
Plotname: DC transfer characteristic
Flags: real
No. Variables: 8
No. Points: 181
Variables:
	0	v(v-sweep)	voltage
	1	@m.xm1.msky130_fd_pr__nfet_01v8[cgb]	capacitance
	2	@m.xm1.msky130_fd_pr__nfet_01v8[cgd]	capacitance
	3	@m.xm1.msky130_fd_pr__nfet_01v8[cgs]	capacitance
	4	@m.xm1.msky130_fd_pr__nfet_01v8[gds]	admittance
	5	@m.xm1.msky130_fd_pr__nfet_01v8[gm]	admittance
	6	i(@m.xm1.msky130_fd_pr__nfet_01v8[id])	current
	7	v(@m.xm1.msky130_fd_pr__nfet_01v8[vth])	voltage
Values:
 0	0.000000000000000e+00
	-3.056127671021854e-15
	-3.779249116023368e-20
	-1.979345763111419e-15
	1.145193848627408e-09
	7.376154119301821e-08
	5.444668131407212e-09
	3.931575041567363e-01

 1	1.000000000000000e-02
	-3.023417705013964e-15
	-3.929296885811210e-20
	-2.048153027892835e-15
	1.310609493511348e-09
	8.431362560800763e-08
	6.233888523036807e-09
	3.931575042313849e-01

 2	2.000000000000000e-02
	-2.990559263958771e-15
	-4.084861873234020e-20
	-2.118404145090376e-15
	1.499479878565708e-09
	9.634545688695231e-08
	7.135870451760460e-09
	3.931575043167042e-01

 3	3.000000000000000e-02
	-2.957565525156864e-15
	-4.246109151929730e-20
	-2.190069482408015e-15
	1.715034124999964e-09
	1.100590196687918e-07
	8.166400397081543e-09
	3.931575044141863e-01

 4	4.000000000000000e-02
	-2.924450752638473e-15
	-4.413206269008090e-20
	-2.263115643639194e-15
	1.960924941506289e-09
	1.256829724521950e-07
	9.343415374356200e-09
	3.931575045255289e-01

 5	5.000000000000000e-02
	-2.891230261604747e-15
	-4.586323157506076e-20
	-2.337505478560956e-15
	2.241279704082579e-09
	1.434760643055742e-07
	1.068728641466197e-08
	3.931575046526645e-01

 6	6.000000000000000e-02
	-2.857920376400121e-15
	-4.765632045239778e-20
	-2.413198113018141e-15
	2.560756750510932e-09
	1.637309900044331e-07
	1.222113835631893e-08
	3.931575047977813e-01

 7	7.000000000000001e-02
	-2.824538382111295e-15
	-4.951307360545490e-20
	-2.490148999646472e-15
	2.924607223094092e-09
	1.867787453185444e-07
	1.397121063292756e-08
	3.931575049633649e-01

 8	8.000000000000000e-02
	-2.791102469953234e-15
	-5.143525635444160e-20
	-2.568309989506673e-15
	3.338742770320812e-09
	2.129935546740076e-07
	1.596726441099516e-08
	3.931575051522374e-01

 9	9.000000000000000e-02
	-2.757631676667802e-15
	-5.342465406791065e-20
	-2.647629424714187e-15
	3.809809382474286e-09
	2.427984559018371e-07
	1.824304221312159e-08
	3.931575053675974e-01

 10	9.999999999999999e-02
	-2.724145818225345e-15
	-5.548307116006029e-20
	-2.728052251954469e-15
	4.345267585455014e-09
	2.766716415466986e-07
	2.083678708161864e-08
	3.931575056130709e-01

 11	1.100000000000000e-01
	-2.690665418182518e-15
	-5.761233008002664e-20
	-2.809520156574304e-15
	4.953479148749622e-09
	3.151536735252443e-07
	2.379182941650591e-08
	3.931575058927700e-01

 12	1.200000000000000e-01
	-2.657211631110265e-15
	-5.981427029956356e-20
	-2.891971716737450e-15
	5.643800374947599e-09
	3.588557080288529e-07
	2.715725088783690e-08
	3.931575062113537e-01

 13	1.300000000000000e-01
	-2.623806161562961e-15
	-6.209074730569065e-20
	-2.975342576931367e-15
	6.426681926890348e-09
	4.084688906096362e-07
	3.098863630397651e-08
	3.931575065740993e-01

 14	1.400000000000000e-01
	-2.590471179112423e-15
	-6.444363160496271e-20
	-3.059565639913342e-15
	7.313775011960923e-09
	4.647751073764970e-07
	3.534892604435752e-08
	3.931575069869889e-01

 15	1.500000000000000e-01
	-2.557229230018026e-15
	-6.687480774610934e-20
	-3.144571275992648e-15
	8.318043578973230e-09
	5.286593069443668e-07
	4.030938366596713e-08
	3.931575074567960e-01

 16	1.600000000000000e-01
	-2.524103146145550e-15
	-6.938617336777978e-20
	-3.230287548362116e-15
	9.453881989818780e-09
	6.011236386933223e-07
	4.595069559225510e-08
	3.931575079912012e-01

 17	1.700000000000000e-01
	-2.491115951781984e-15
	-7.197963827809761e-20
	-3.316640453022393e-15
	1.073723740437600e-08
	6.833036850458969e-07
	5.236422240897467e-08
	3.931575085988992e-01

 18	1.800000000000000e-01
	-2.458290769020974e-15
	-7.465712357258962e-20
	-3.403554171685092e-15
	1.218573586293761e-08
	7.764870973380239e-07
	5.965342422882622e-08
	3.931575092897563e-01

 19	1.900000000000000e-01
	-2.425650722412629e-15
	-7.742056079696740e-20
	-3.490951335903860e-15
	1.381881076654810e-08
	8.821349742192344e-07
	6.793548583256325e-08
	3.931575100749455e-01

 20	2.000000000000000e-01
	-2.393218843582834e-15
	-8.027189116093000e-20
	-3.578753300561345e-15
	1.565783214450687e-08
	1.001906345292445e-06
	7.734317080844250e-08
	3.931575109671487e-01

 21	2.100000000000000e-01
	-2.361017976529556e-15
	-8.321306480900848e-20
	-3.666880424744022e-15
	1.772623476408078e-08
	1.137686136839302e-06
	8.802693761967688e-08
	3.931575119807513e-01

 22	2.200000000000001e-01
	-2.329070684297767e-15
	-8.624604015407933e-20
	-3.755252357961060e-15
	2.004964278623928e-08
	1.291616995826678e-06
	1.001573543092801e-07
	3.931575131320807e-01

 23	2.300000000000001e-01
	-2.297399157720048e-15
	-8.937278327887082e-20
	-3.843788329613514e-15
	2.265598831139745e-08
	1.466135326692574e-06
	1.139278522254467e-07
	3.931575144396792e-01

 24	2.400000000000001e-01
	-2.266025126887159e-15
	-9.259526741037999e-20
	-3.932407439594779e-15
	2.557562080145212e-08
	1.664011845331280e-06
	1.295578624718952e-07
	3.931575159246154e-01

 25	2.500000000000001e-01
	-2.234969775982055e-15
	-9.591547247168044e-20
	-4.021028947903562e-15
	2.884140402204146e-08
	1.888396868031310e-06
	1.472963814322572e-07
	3.931575176108318e-01

 26	2.600000000000001e-01
	-2.204253662072717e-15
	-9.933538471518038e-20
	-4.109572561175687e-15
	3.248879683753322e-08
	2.142870421144757e-06
	1.674260132762169e-07
	3.931575195255553e-01

 27	2.700000000000001e-01
	-2.173896638414126e-15
	-1.028569964408428e-19
	-4.197958714091978e-15
	3.655591392852578e-08
	2.431497071336140e-06
	1.902675373312183e-07
	3.931575216997464e-01

 28	2.800000000000001e-01
	-2.143917782758787e-15
	-1.064823058024793e-19
	-4.286108843692675e-15
	4.108356230706302e-08
	2.758885128608799e-06
	2.161850460173121e-07
	3.931575241686187e-01

 29	2.900000000000001e-01
	-2.114335331118846e-15
	-1.102133167045801e-19
	-4.373945654726059e-15
	4.611524939892100e-08
	3.130249559143739e-06
	2.455916940460511e-07
	3.931575269722223e-01

 30	3.000000000000001e-01
	-2.085166617362413e-15
	-1.140520387917337e-19
	-4.461393374275634e-15
	5.169715846602472e-08
	3.551477559778194e-06
	2.789560910860139e-07
	3.931575301560854e-01

 31	3.100000000000001e-01
	-2.056428018962948e-15
	-1.180004875321182e-19
	-4.548377994045617e-15
	5.787808727525973e-08
	4.029195292913800e-06
	3.168093574034230e-07
	3.931575337719411e-01

 32	3.200000000000001e-01
	-2.028134909154399e-15
	-1.220606843959993e-19
	-4.634827498836592e-15
	6.470934620062306e-08
	4.570833768286277e-06
	3.597528444550899e-07
	3.931575378785220e-01

 33	3.300000000000001e-01
	-2.000301615677508e-15
	-1.262346571297042e-19
	-4.720672079907990e-15
	7.224461238825140e-08
	5.184691302593374e-06
	4.084664995232588e-07
	3.931575425424317e-01

 34	3.400000000000001e-01
	-1.972941386235137e-15
	-1.305244401250101e-19
	-4.805844332100322e-15
	8.053973722801380e-08
	5.879989414602274e-06
	4.637178249252599e-07
	3.931575478390717e-01

 35	3.500000000000001e-01
	-1.946066360707799e-15
	-1.349320748834290e-19
	-4.890279433773154e-15
	8.965250516429471e-08
	6.666918456647599e-06
	5.263713480904563e-07
	3.931575538536608e-01

 36	3.600000000000002e-01
	-1.919687550115385e-15
	-1.394596105743719e-19
	-4.973915308804299e-15
	9.964234283828333e-08
	7.556668787250243e-06
	5.973984792525232e-07
	3.931575606822784e-01

 37	3.700000000000002e-01
	-1.893814822248818e-15
	-1.441091046858514e-19
	-5.056692770085463e-15
	1.105699786714466e-07
	8.561442905694379e-06
	6.778875895134150e-07
	3.931575684329749e-01

 38	3.800000000000002e-01
	-1.868456893836192e-15
	-1.488826237658408e-19
	-5.138555644139926e-15
	1.224970542532773e-07
	9.694443754930524e-06
	7.690540950041098e-07
	3.931575772268884e-01

 39	3.900000000000002e-01
	-1.843621329053095e-15
	-1.537822442521867e-19
	-5.219450876673965e-15
	1.354856902542848e-07
	1.096983441261841e-05
	8.722502847825411e-07
	3.931575871993505e-01

 40	4.000000000000002e-01
	-1.819314544136653e-15
	-1.588100533885515e-19
	-5.299328619053466e-15
	1.495980110074472e-07
	1.240266468617325e-05
	9.889745835299834e-07
	3.931575985009845e-01

 41	4.100000000000002e-01
	-1.795541817817599e-15
	-1.639681502236391e-19
	-5.378142295870027e-15
	1.648956333399240e-07
	1.400876075099710e-05
	1.120879898095454e-06
	3.931576112987211e-01

 42	4.200000000000002e-01
	-1.772307307245360e-15
	-1.692586466906959e-19
	-5.455848653921881e-15
	1.814391266372626e-07
	1.580457494954533e-05
	1.269780662920880e-06
	3.931576257767015e-01

 43	4.300000000000002e-01
	-1.749614069047360e-15
	-1.746836687639836e-19
	-5.532407793084601e-15
	1.992874524262882e-07
	1.780699420716254e-05
	1.437658176955755e-06
	3.931576421370579e-01

 44	4.400000000000002e-01
	-1.727464085136005e-15
	-1.802453576890050e-19
	-5.607783179683410e-15
	2.184973929110308e-07
	2.003310719468938e-05
	1.626663817344385e-06
	3.931576606004746e-01

 45	4.500000000000002e-01
	-1.705858292855019e-15
	-1.859458712827065e-19
	-5.681941643100024e-15
	2.391229788301411e-07
	2.249993232142414e-05
	1.839119726042365e-06
	3.931576814065340e-01

 46	4.600000000000002e-01
	-1.684796619040920e-15
	-1.917873853003502e-19
	-5.754853356453888e-15
	2.612149276721498e-07
	2.522411078608500e-05
	2.077516596973033e-06
	3.931577048137678e-01

 47	4.700000000000003e-01
	-1.664278017565213e-15
	-1.977720948650676e-19
	-5.826491802288207e-15
	2.848201036418787e-07
	2.822157112874246e-05
	2.344508244696902e-06
	3.931577310993969e-01

 48	4.800000000000003e-01
	-1.644300509918157e-15
	-2.039022159567095e-19
	-5.896833724266293e-15
	3.099810107845889e-07
	3.150717387054467e-05
	2.642902710855429e-06
	3.931577605587025e-01

 49	4.900000000000003e-01
	-1.624861228395461e-15
	-2.101799869560255e-19
	-5.965859065942391e-15
	3.367353303245775e-07
	3.509434674405380e-05
	2.975649760370781e-06
	3.931577935040349e-01

 50	5.000000000000002e-01
	-1.605956461454296e-15
	-2.166076702408249e-19
	-6.033550897715420e-15
	3.651155125588850e-07
	3.899472254813752e-05
	3.345824732470113e-06
	3.931578302633925e-01

 51	5.100000000000002e-01
	-1.587581700814718e-15
	-2.231875538302676e-19
	-6.099895333102072e-15
	3.951484325770185e-07
	4.321779266429700e-05
	3.756608837465032e-06
	3.931578711786410e-01

 52	5.200000000000002e-01
	-1.569731689895707e-15
	-2.299219530740820e-19
	-6.164881435481475e-15
	4.268551176851003e-07
	4.777058963137136e-05
	4.211266122978820e-06
	3.931579166032881e-01

 53	5.300000000000002e-01
	-1.552400473192038e-15
	-2.368132123831349e-19
	-6.228501116464018e-15
	4.602505527420083e-07
	5.265741181925342e-05
	4.713117466124007e-06
	3.931579668999360e-01

 54	5.400000000000003e-01
	-1.535581446217555e-15
	-2.438637069983704e-19
	-6.290749027027597e-15
	4.953435677268370e-07
	5.787960214754570e-05
	5.265512073686753e-06
	3.931580224373808e-01

 55	5.500000000000003e-01
	-1.519267405662569e-15
	-2.510758447949229e-19
	-6.351622442542428e-15
	5.321368098206442e-07
	6.343539099579845e-05
	5.871797083394453e-06
	3.931580835874345e-01

 56	5.600000000000003e-01
	-1.503450599436863e-15
	-2.584520681186562e-19
	-6.411121142774759e-15
	5.706268001794629e-07
	6.931981103774235e-05
	6.535285949193500e-06
	3.931581507215380e-01

 57	5.700000000000003e-01
	-1.488122776295219e-15
	-2.659948556524702e-19
	-6.469247287919999e-15
	6.108040734808457e-07
	7.552468884171448e-05
	7.259226356651188e-06
	3.931582242072453e-01

 58	5.800000000000003e-01
	-1.473275234768448e-15
	-2.737067243099722e-19
	-6.526005291669278e-15
	6.526533963227536e-07
	8.203871489030927e-05
	8.046768447219416e-06
	3.931583044046447e-01

 59	5.900000000000003e-01
	-1.458898871149947e-15
	-2.815902311542634e-19
	-6.581401692260291e-15
	6.961540587158646e-07
	8.884759038403665e-05
	8.900934130155082e-06
	3.931583916628172e-01

 60	6.000000000000003e-01
	-1.444984226314589e-15
	-2.896479753400170e-19
	-6.635445022405916e-15
	7.412802313038496e-07
	9.593424601181826e-05
	9.824588228425722e-06
	3.931584863164073e-01

 61	6.100000000000003e-01
	-1.431521531173916e-15
	-2.978826000770002e-19
	-6.688145678932291e-15
	7.880013796233666e-07
	1.032791249887735e-04
	1.082041214198402e-05
	3.931585886824159e-01

 62	6.200000000000003e-01
	-1.418500750597551e-15
	-3.062967946137449e-19
	-6.739515792894780e-15
	8.362827257146489e-07
	1.108605202444521e-04
	1.189088062223441e-05
	3.931586990572510e-01

 63	6.300000000000003e-01
	-1.405911625656803e-15
	-3.148932962399984e-19
	-6.789569100874013e-15
	8.860857467353187e-07
	1.186549538175263e-04
	1.303824214063909e-05
	3.931588177141406e-01

 64	6.400000000000003e-01
	-1.393743714070871e-15
	-3.236748923071780e-19
	-6.838320818088247e-15
	9.373686999202970e-07
	1.266375853531694e-04
	1.426450320857101e-05
	3.931589449009471e-01

 65	6.500000000000004e-01
	-1.381986428759604e-15
	-3.326444222660297e-19
	-6.885787513892200e-15
	9.900871632576814e-07
	1.347826361328670e-04
	1.557141687155197e-05
	3.931590808384084e-01

 66	6.600000000000004e-01
	-1.370629074429150e-15
	-3.418047797210436e-19
	-6.931986990166836e-15
	1.044194581589143e-06
	1.430638152703202e-04
	1.696047546577203e-05
	3.931592257188751e-01

 67	6.700000000000004e-01
	-1.359660882137368e-15
	-3.511589145013999e-19
	-6.976938163041241e-15
	1.099642808457595e-06
	1.514547355158946e-04
	1.843290759469986e-05
	3.931593797055023e-01

 68	6.800000000000004e-01
	-1.349071041805441e-15
	-3.607098347485609e-19
	-7.020660948325591e-15
	1.156382634867880e-06
	1.599293074265739e-04
	1.998967916421124e-05
	3.931595429319253e-01

 69	6.900000000000004e-01
	-1.338848732659596e-15
	-3.704606090205201e-19
	-7.063176150975236e-15
	1.214364297147820e-06
	1.684621023575998e-04
	2.163149821047370e-05
	3.931597155023841e-01

 70	7.000000000000004e-01
	-1.328983151603189e-15
	-3.804143684133135e-19
	-7.104505358849385e-15
	1.273537957242890e-06
	1.770286766841583e-04
	2.335882316900590e-05
	3.931598974922869e-01

 71	7.100000000000004e-01
	-1.319463539533731e-15
	-3.905743087003535e-19
	-7.144670840975007e-15
	1.333854149995799e-06
	1.856058517354793e-04
	2.517187416776158e-05
	3.931600889491421e-01

 72	7.200000000000004e-01
	-1.310279205632527e-15
	-4.009436924902888e-19
	-7.183695450476702e-15
	1.395264193201636e-06
	1.941719459979993e-04
	2.707064688234604e-05
	3.931602898938446e-01

 73	7.300000000000004e-01
	-1.301419549665889e-15
	-4.115258514045433e-19
	-7.221602532287294e-15
	1.457720557446852e-06
	2.027069581144132e-04
	2.905492846705351e-05
	3.931605003222298e-01

 74	7.400000000000004e-01
	-1.292874082346822e-15
	-4.223241882754105e-19
	-7.258415835711497e-15
	1.521177193896825e-06
	2.111927009881402e-04
	3.112431506979502e-05
	3.931607202068783e-01

 75	7.500000000000004e-01
	-1.284632443814519e-15
	-4.333421793662627e-19
	-7.294159431876361e-15
	1.585589819263623e-06
	2.196128888386677e-04
	3.327823045002551e-05
	3.931609494990780e-01

 76	7.600000000000005e-01
	-1.276684420296060e-15
	-4.445833766149231e-19
	-7.328857636067294e-15
	1.650916158138820e-06
	2.279531803060760e-04
	3.551594524375563e-05
	3.931611881309183e-01

 77	7.700000000000005e-01
	-1.269019959020593e-15
	-4.560514099020721e-19
	-7.362534934916995e-15
	1.717116143702680e-06
	2.362011816586161e-04
	3.783659645577227e-05
	3.931614360174466e-01

 78	7.800000000000005e-01
	-1.261629181460821e-15
	-4.677499893460630e-19
	-7.395215918387105e-15
	1.784152078512032e-06
	2.443464148195803e-04
	4.023920680329125e-05
	3.931616930588543e-01

 79	7.900000000000005e-01
	-1.254502394980151e-15
	-4.796829076260651e-19
	-7.426925216457885e-15
	1.851988757624455e-06
	2.523802553180190e-04
	4.272270358460758e-05
	3.931619591426319e-01

 80	8.000000000000005e-01
	-1.247630102966398e-15
	-4.918540423352884e-19
	-7.457687440420231e-15
	1.920593556738956e-06
	2.602958454118031e-04
	4.528593679826246e-05
	3.931622341456807e-01

 81	8.100000000000005e-01
	-1.241003013534526e-15
	-5.042673583662674e-19
	-7.487527128646348e-15
	1.989936488332343e-06
	2.680879875678532e-04
	4.792769629058352e-05
	3.931625179363282e-01

 82	8.200000000000005e-01
	-1.234612046881639e-15
	-5.169269103302120e-19
	-7.516468696700314e-15
	2.059990228956274e-06
	2.757530232528301e-04
	5.064672776026598e-05
	3.931628103762301e-01

 83	8.300000000000005e-01
	-1.228448341377569e-15
	-5.298368450126099e-19
	-7.544536391637403e-15
	2.130730120945776e-06
	2.832887016284408e-04
	5.344174749648046e-05
	3.931631113221621e-01

 84	8.400000000000005e-01
	-1.222503258473670e-15
	-5.430014038672010e-19
	-7.571754250331114e-15
	2.202134151791141e-06
	2.906940422970675e-04
	5.631145577077085e-05
	3.931634206276345e-01

 85	8.500000000000005e-01
	-1.216768386511501e-15
	-5.564249255506195e-19
	-7.598146061659257e-15
	2.274182914353586e-06
	2.979691957398770e-04
	5.925454884193884e-05
	3.931637381443901e-01

 86	8.600000000000005e-01
	-1.211235543511108e-15
	-5.701118485000685e-19
	-7.623735332374930e-15
	2.346859550978334e-06
	3.051153045612078e-04
	6.226972956692560e-05
	3.931640637237275e-01

 87	8.700000000000006e-01
	-1.205896779016947e-15
	-5.840667135564030e-19
	-7.648545256484589e-15
	2.420149684387035e-06
	3.121343681240535e-04
	6.535571663916122e-05
	3.931643972176623e-01

 88	8.800000000000006e-01
	-1.200744375076773e-15
	-5.982941666351211e-19
	-7.672598687953325e-15
	2.494041338028709e-06
	3.190291126514948e-04
	6.851125249911561e-05
	3.931647384799666e-01

 89	8.900000000000006e-01
	-1.195770846426389e-15
	-6.127989614479360e-19
	-7.695918116557166e-15
	2.568524848345424e-06
	3.258028683923767e-04
	7.173510998013603e-05
	3.931650873670173e-01

 90	9.000000000000006e-01
	-1.190968939950119e-15
	-6.275859622772966e-19
	-7.718525646702872e-15
	2.643592771173236e-06
	3.324594550158928e-04
	7.502609776638637e-05
	3.931654437385430e-01

 91	9.100000000000006e-01
	-1.186331633483930e-15
	-6.426601468066684e-19
	-7.740442979037790e-15
	2.719239784261083e-06
	3.390030760153831e-04
	7.838306474941381e-05
	3.931658074582174e-01

 92	9.200000000000006e-01
	-1.181852134024867e-15
	-6.580266090095058e-19
	-7.761691394675238e-15
	2.795462587654134e-06
	3.454382225687821e-04
	8.180490337593800e-05
	3.931661783941419e-01

 93	9.300000000000006e-01
	-1.177523875407255e-15
	-6.736905620993592e-19
	-7.782291741864766e-15
	2.872259803459928e-06
	3.517695870220506e-04
	8.529055208248278e-05
	3.931665564192033e-01

 94	9.400000000000006e-01
	-1.173340515502915e-15
	-6.896573415442706e-19
	-7.802264424940917e-15
	2.949631876299037e-06
	3.580019859305706e-04
	8.883899691292951e-05
	3.931669414113610e-01

 95	9.500000000000006e-01
	-1.169295932999137e-15
	-7.059324081483134e-19
	-7.821629395389621e-15
	3.027580975539603e-06
	3.641402924085889e-04
	9.244927241346895e-05
	3.931673332538088e-01

 96	9.600000000000006e-01
	-1.165384223805068e-15
	-7.225213512033170e-19
	-7.840406144876542e-15
	3.106110900228201e-06
	3.701893773939725e-04
	9.612046189615672e-05
	3.931677318350802e-01

 97	9.700000000000006e-01
	-1.161599697133936e-15
	-7.394298917136912e-19
	-7.858613700087584e-15
	3.185226987459961e-06
	3.761540593302347e-04
	9.985169715780702e-05
	3.931681370490860e-01

 98	9.800000000000006e-01
	-1.157936871305091e-15
	-7.566638856978480e-19
	-7.876270619238504e-15
	3.264936024778536e-06
	3.820390616948872e-04
	1.036421577355879e-04
	3.931685487950806e-01

 99	9.900000000000007e-01
	-1.154390469307156e-15
	-7.742293275689409e-19
	-7.893394990116202e-15
	3.345246167061014e-06
	3.878489777577944e-04
	1.074910697747136e-04
	3.931689669775859e-01

 100	1.000000000000001e+00
	-1.150955414160244e-15
	-7.921323535987608e-19
	-7.910004429521321e-15
	3.426166858224142e-06
	3.935882419307553e-04
	1.113977045773402e-04
	3.931693915062753e-01

 101	1.010000000000001e+00
	-1.147626824112445e-15
	-8.103792454676416e-19
	-7.926116083988229e-15
	3.507708757985519e-06
	3.992611070656253e-04
	1.153613768953556e-04
	3.931698222958148e-01

 102	1.020000000000001e+00
	-1.144400007703001e-15
	-8.289764339042818e-19
	-7.941746631664875e-15
	3.589883673824620e-06
	4.048716270690091e-04
	1.193814430233538e-04
	3.931702592656886e-01

 103	1.030000000000001e+00
	-1.141270458721938e-15
	-8.479305024185900e-19
	-7.956912285241614e-15
	3.672704498214572e-06
	4.104236442235603e-04
	1.234572987418877e-04
	3.931707023399950e-01

 104	1.040000000000001e+00
	-1.138233851093269e-15
	-8.672481911314150e-19
	-7.971628795824668e-15
	3.756185151132819e-06
	4.159207806361216e-04
	1.275883771551228e-04
	3.931711514472284e-01

 105	1.050000000000001e+00
	-1.135286033706656e-15
	-8.869364007048578e-19
	-7.985911457655969e-15
	3.840340527808002e-06
	4.213664332688805e-04
	1.317741464614026e-04
	3.931716065200465e-01

 106	1.060000000000001e+00
	-1.132423025220012e-15
	-9.070021963769330e-19
	-7.999775113587337e-15
	3.925186451619158e-06
	4.267637720492967e-04
	1.360141076899838e-04
	3.931720674950381e-01

 107	1.070000000000001e+00
	-1.129641008853383e-15
	-9.274528121041645e-19
	-8.013234161223112e-15
	4.010739632031249e-06
	4.321157405960641e-04
	1.403077924323811e-04
	3.931725343124862e-01

 108	1.080000000000001e+00
	-1.126936327192468e-15
	-9.482956548167461e-19
	-8.026302559650858e-15
	4.097017627426327e-06
	4.374250591404261e-04
	1.446547605923305e-04
	3.931730069161195e-01

 109	1.090000000000001e+00
	-1.124305477018240e-15
	-9.695383087896717e-19
	-8.038993836685523e-15
	4.184038812671605e-06
	4.426942292636743e-04
	1.490545981743828e-04
	3.931734852528839e-01

 110	1.100000000000001e+00
	-1.121745104177295e-15
	-9.911885401344834e-19
	-8.051321096557722e-15
	4.271822351253991e-06
	4.479255401119721e-04
	1.535069151275643e-04
	3.931739692727022e-01

 111	1.110000000000001e+00
	-1.119251998505962e-15
	-1.013254301415753e-18
	-8.063297027981933e-15
	4.360388171802846e-06
	4.531210757879279e-04
	1.580113432573299e-04
	3.931744589282468e-01

 112	1.120000000000001e+00
	-1.116823088819640e-15
	-1.035743736396873e-18
	-8.074933912545298e-15
	4.449756948819957e-06
	4.582827236544444e-04
	1.625675342162196e-04
	3.931749541747215e-01

 113	1.130000000000001e+00
	-1.114455437977462e-15
	-1.058665184919483e-18
	-8.086243633362248e-15
	4.539950087435898e-06
	4.634121833198923e-04
	1.671751575811583e-04
	3.931754549696471e-01

 114	1.140000000000001e+00
	-1.112146238030902e-15
	-1.082027187921401e-18
	-8.097237683944871e-15
	4.630989712015135e-06
	4.685109761044872e-04
	1.718338990231819e-04
	3.931759612726563e-01

 115	1.150000000000001e+00
	-1.109892805463972e-15
	-1.105838492597978e-18
	-8.107927177242723e-15
	4.722898658437377e-06
	4.735804548158776e-04
	1.765434585735076e-04
	3.931764730453060e-01

 116	1.160000000000001e+00
	-1.107692576531297e-15
	-1.130108057711436e-18
	-8.118322854810035e-15
	4.815700469890509e-06
	4.786218136874386e-04
	1.813035489882959e-04
	3.931769902508905e-01

 117	1.170000000000001e+00
	-1.105543102699457e-15
	-1.154845059053983e-18
	-8.128435096061893e-15
	4.909419396018777e-06
	4.836360983555864e-04
	1.861138942130900e-04
	3.931775128542592e-01

 118	1.180000000000001e+00
	-1.103442046196114e-15
	-1.180058895069011e-18
	-8.138273927584240e-15
	5.004080395279440e-06
	4.886242157727745e-04
	1.909742279467665e-04
	3.931780408216749e-01

 119	1.190000000000001e+00
	-1.101387175670309e-15
	-1.205759192636955e-18
	-8.147849032466308e-15
	5.099709140373110e-06
	4.935869439710176e-04
	1.958842923039539e-04
	3.931785741206406e-01

 120	1.200000000000001e+00
	-1.099376361966908e-15
	-1.231955813030382e-18
	-8.157169759626523e-15
	5.196332026622530e-06
	4.985249416065022e-04
	2.008438365740200e-04
	3.931791127197659e-01

 121	1.210000000000001e+00
	-1.097407574017165e-15
	-1.258658858044783e-18
	-8.166245133106327e-15
	5.293976183187696e-06
	5.034387572298782e-04
	2.058526160741712e-04
	3.931796565886384e-01

 122	1.220000000000001e+00
	-1.095478874846862e-15
	-1.285878676310694e-18
	-8.175083861308737e-15
	5.392669487016721e-06
	5.083288382388811e-04
	2.109103910936950e-04
	3.931802056976960e-01

 123	1.230000000000001e+00
	-1.093588417702934e-15
	-1.313625869793390e-18
	-8.183694346160922e-15
	5.492440579443795e-06
	5.131955394803361e-04
	2.160169259259866e-04
	3.931807600181136e-01

 124	1.240000000000001e+00
	-1.091734442298875e-15
	-1.341911300486636e-18
	-8.192084692182645e-15
	5.593318885358122e-06
	5.180391314776175e-04
	2.211719879847299e-04
	3.931813195216954e-01

 125	1.250000000000001e+00
	-1.089915271178895e-15
	-1.370746097306736e-18
	-8.200262715444081e-15
	5.695334634879434e-06
	5.228598082672143e-04
	2.263753470003915e-04
	3.931818841807925e-01

 126	1.260000000000001e+00
	-1.088129306200184e-15
	-1.400141663194078e-18
	-8.208235952399132e-15
	5.798518887488435e-06
	5.276576948345984e-04
	2.316267742930819e-04
	3.931824539682036e-01

 127	1.270000000000001e+00
	-1.086375025132546e-15
	-1.430109682428857e-18
	-8.216011668581438e-15
	5.902903558571655e-06
	5.324328541449472e-04
	2.369260421177350e-04
	3.931830288570972e-01

 128	1.280000000000001e+00
	-1.084650978374048e-15
	-1.460662128168491e-18
	-8.223596867152693e-15
	6.008521448352439e-06
	5.371852937688095e-04
	2.422729230775530e-04
	3.931836088209414e-01

 129	1.290000000000001e+00
	-1.082955785781356e-15
	-1.491811270213906e-18
	-8.230998297293740e-15
	6.115406273191420e-06
	5.419149721065416e-04
	2.476671896016872e-04
	3.931841938334393e-01

 130	1.300000000000001e+00
	-1.081288133612877e-15
	-1.523569683012870e-18
	-8.238222462430947e-15
	6.223592699251155e-06
	5.466218042183277e-04
	2.531086134831711e-04
	3.931847838684713e-01

 131	1.310000000000001e+00
	-1.079646771582867e-15
	-1.555950253907957e-18
	-8.245275628291141e-15
	6.333116378531332e-06
	5.513056672690556e-04
	2.585969654732157e-04
	3.931853789000316e-01

 132	1.320000000000001e+00
	-1.078030510024380e-15
	-1.588966191637852e-18
	-8.252163830779888e-15
	6.444013987291168e-06
	5.559664055991377e-04
	2.641320149280396e-04
	3.931859789022004e-01

 133	1.330000000000001e+00
	-1.076438217158707e-15
	-1.622631035100363e-18
	-8.258892883678902e-15
	6.556323266888704e-06
	5.606038354339642e-04
	2.697135295046069e-04
	3.931865838490827e-01

 134	1.340000000000001e+00
	-1.074868816469023e-15
	-1.656958662385854e-18
	-8.265468386159245e-15
	6.670083067075314e-06
	5.652177492455701e-04
	2.753412749016702e-04
	3.931871937147839e-01

 135	1.350000000000001e+00
	-1.073321284175649e-15
	-1.691963300090929e-18
	-8.271895730107978e-15
	6.785333391797132e-06
	5.698079197810187e-04
	2.810150146427589e-04
	3.931878084733735e-01

 136	1.360000000000001e+00
	-1.071794646810385e-15
	-1.727659532921223e-18
	-8.278180107266750e-15
	6.902115447564566e-06
	5.743741037723731e-04
	2.867345098978270e-04
	3.931884280988547e-01

 137	1.370000000000001e+00
	-1.070287978887292e-15
	-1.764062313593699e-18
	-8.284326516181387e-15
	7.020471694463022e-06
	5.789160453434336e-04
	2.924995193404626e-04
	3.931890525651437e-01

 138	1.380000000000001e+00
	-1.068800400667154e-15
	-1.801186973048384e-18
	-8.290339768962361e-15
	7.140445899889005e-06
	5.834334791284839e-04
	2.983097990377030e-04
	3.931896818460450e-01

 139	1.390000000000001e+00
	-1.067331076012997e-15
	-1.839049230980065e-18
	-8.296224497856475e-15
	7.262083195107082e-06
	5.879261331181825e-04
	3.041651023696466e-04
	3.931903159152408e-01

 140	1.400000000000001e+00
	-1.065879210333839e-15
	-1.877665206701635e-18
	-8.301985161630740e-15
	7.385430134735175e-06
	5.923937312475593e-04
	3.100651799762203e-04
	3.931909547462671e-01

 141	1.410000000000001e+00
	-1.064444048613970e-15
	-1.917051430349485e-18
	-8.307626051769751e-15
	7.510534759276951e-06
	5.968359957407156e-04
	3.160097797285811e-04
	3.931915983125083e-01

 142	1.420000000000001e+00
	-1.063024873525005e-15
	-1.957224854443621e-18
	-8.313151298488384e-15
	7.637446660832935e-06
	6.012526492264816e-04
	3.219986467228040e-04
	3.931922465871858e-01

 143	1.430000000000001e+00
	-1.061621003618002e-15
	-1.998202865814220e-18
	-8.318564876561986e-15
	7.766217052134116e-06
	6.056434166387874e-04
	3.280315232936252e-04
	3.931928995433521e-01

 144	1.440000000000001e+00
	-1.060231791592892e-15
	-2.040003297907514e-18
	-8.323870610976441e-15
	7.896898839055350e-06
	6.100080269150504e-04
	3.341081490461711e-04
	3.931935571538815e-01

 145	1.450000000000001e+00
	-1.058856622642607e-15
	-2.082644443484366e-18
	-8.329072182400945e-15
	8.029546696778707e-06
	6.143462145052792e-04
	3.402282609036929e-04
	3.931942193914707e-01

 146	1.460000000000001e+00
	-1.057494912869274e-15
	-2.126145067724739e-18
	-8.334173132486367e-15
	8.164217149791985e-06
	6.186577207041041e-04
	3.463915931694973e-04
	3.931948862286402e-01

 147	1.470000000000001e+00
	-1.056146107769780e-15
	-2.170524421752811e-18
	-8.339176868992485e-15
	8.300968655922048e-06
	6.229422948173375e-04
	3.525978776013599e-04
	3.931955576377237e-01

 148	1.480000000000001e+00
	-1.054809680788289e-15
	-2.215802256596919e-18
	-8.344086670747320e-15
	8.439861694617720e-06
	6.271996951740648e-04
	3.588468434968027e-04
	3.931962335908809e-01

 149	1.490000000000001e+00
	-1.053485131933135e-15
	-2.261998837599994e-18
	-8.348905692442176e-15
	8.580958859714702e-06
	6.314296899947536e-04
	3.651382177877745e-04
	3.931969140600868e-01

 150	1.500000000000001e+00
	-1.052171986455696e-15
	-2.309134959296045e-18
	-8.353636969265880e-15
	8.724324956930677e-06
	6.356320581251999e-04
	3.714717251433111e-04
	3.931975990171482e-01

 151	1.510000000000001e+00
	-1.050869793588810e-15
	-2.357231960769264e-18
	-8.358283421382018e-15
	8.870027106358707e-06
	6.398065896456566e-04
	3.778470880789102e-04
	3.931982884337001e-01

 152	1.520000000000001e+00
	-1.049578125342456e-15
	-2.406311741512676e-18
	-8.362847858252863e-15
	9.018134850245534e-06
	6.439530863638717e-04
	3.842640270714037e-04
	3.931989822812119e-01

 153	1.530000000000001e+00
	-1.048296575354411e-15
	-2.456396777804547e-18
	-8.367332982813863e-15