Title: ** sch_path: /home/andylithia/openmpw/project-yatsuhashi-chip1/xschem/gmid_test/nmos_test.sch
Date: Tue Jul 19 23:15:45  2022
Plotname: DC transfer characteristic
Flags: real
No. Variables: 8
No. Points: 181
Variables:
	0	v(v-sweep)	voltage
	1	@m.xm1.msky130_fd_pr__nfet_01v8[cgb]	capacitance
	2	@m.xm1.msky130_fd_pr__nfet_01v8[cgd]	capacitance
	3	@m.xm1.msky130_fd_pr__nfet_01v8[cgs]	capacitance
	4	@m.xm1.msky130_fd_pr__nfet_01v8[gds]	admittance
	5	@m.xm1.msky130_fd_pr__nfet_01v8[gm]	admittance
	6	i(@m.xm1.msky130_fd_pr__nfet_01v8[id])	current
	7	v(@m.xm1.msky130_fd_pr__nfet_01v8[vth])	voltage
Values:
 0	0.000000000000000e+00
	-6.604253313946925e-15
	-3.297365033124912e-19
	-1.033051519191302e-14
	1.324890402552530e-08
	5.749631084673810e-07
	6.481351444269133e-08
	2.447726757728182e-01

 1	1.000000000000000e-02
	-6.528417916934498e-15
	-3.383981765811206e-19
	-1.050535975752496e-14
	1.444273886775910e-08
	6.274969578153503e-07
	7.082201524502242e-08
	2.447726762912508e-01

 2	2.000000000000000e-02
	-6.453323587600137e-15
	-3.472663071498491e-19
	-1.068047878021034e-14
	1.573936944275515e-08
	6.847954037474093e-07
	7.737932818537469e-08
	2.447726768572687e-01

 3	3.000000000000000e-02
	-6.378992349006925e-15
	-3.563449939392633e-19
	-1.085579655111061e-14
	1.714704316969938e-08
	7.472973960939696e-07
	8.453526003256725e-08
	2.447726774752313e-01

 4	4.000000000000000e-02
	-6.305445871281883e-15
	-3.656383961120367e-19
	-1.103123712595559e-14
	1.867459650092917e-08
	8.154846953035754e-07
	9.234421748645695e-08
	2.447726781499052e-01

 5	5.000000000000000e-02
	-6.232705423879485e-15
	-3.751507338696173e-19
	-1.120672444651557e-14
	2.033148874342525e-08
	8.898864500188242e-07
	1.008656577570275e-07
	2.447726788865126e-01

 6	6.000000000000000e-02
	-6.160791829220404e-15
	-3.848862892840463e-19
	-1.138218246226272e-14
	2.212783694093472e-08
	9.710842973878356e-07
	1.101645874872044e-07
	2.447726796907774e-01

 7	7.000000000000001e-02
	-6.089725417845616e-15
	-3.948494071665279e-19
	-1.155753525185033e-14
	2.407445175661579e-08
	1.059718042771777e-06
	1.203121155262863e-07
	2.447726805689622e-01

 8	8.000000000000000e-02
	-6.019525985220066e-15
	-4.050444959743229e-19
	-1.173270714401861e-14
	2.618287428440362e-08
	1.156491979975939e-06
	1.313860656497388e-07
	2.447726815279389e-01

 9	9.000000000000000e-02
	-5.950212750312585e-15
	-4.154760287575654e-19
	-1.190762283754030e-14
	2.846541370505817e-08
	1.262181917548680e-06
	1.434716559546225e-07
	2.447726825752490e-01

 10	9.999999999999999e-02
	-5.881804316071775e-15
	-4.261485441476793e-19
	-1.208220751982266e-14
	3.093518569003083e-08
	1.377642980952381e-06
	1.566622523367556e-07
	2.447726837191685e-01

 11	1.100000000000000e-01
	-5.814318631908822e-15
	-4.370666473888016e-19
	-1.225638698378981e-14
	3.360615144298771e-08
	1.503818264389372e-06
	1.710602041739202e-07
	2.447726849687988e-01

 12	1.200000000000000e-01
	-5.747772958289552e-15
	-4.482350114140800e-19
	-1.243008774267908e-14
	3.649315725508720e-08
	1.641748409615098e-06
	1.867777710954488e-07
	2.447726863341360e-01

 13	1.300000000000000e-01
	-5.682183833528705e-15
	-4.596583779681155e-19
	-1.260323714239413e-14
	3.961197443598013e-08
	1.792582192015317e-06
	2.039381505070141e-07
	2.447726878261876e-01

 14	1.400000000000000e-01
	-5.617567042869275e-15
	-4.713415587774453e-19
	-1.277576347107268e-14
	4.297933946806565e-08
	1.957588196367548e-06
	2.226766163537706e-07
	2.447726894570648e-01

 15	1.500000000000000e-01
	-5.553937589919980e-15
	-4.832894367703170e-19
	-1.294759606553882e-14
	4.661299421684497e-08
	2.138167665819285e-06
	2.431417804355230e-07
	2.447726912401166e-01

 16	1.600000000000000e-01
	-5.491309670512860e-15
	-4.955069673475565e-19
	-1.311866541432788e-14
	5.053172601537363e-08
	2.335868607446957e-06
	2.654969884233510e-07
	2.447726931900510e-01

 17	1.700000000000000e-01
	-5.429696649032659e-15
	-5.079991797059666e-19
	-1.328890325698808e-14
	5.475540742582154e-08
	2.552401236024867e-06
	2.899218635532434e-07
	2.447726953231009e-01

 18	1.800000000000000e-01
	-5.369111037258338e-15
	-5.207711782157470e-19
	-1.345824267938354e-14
	5.930503546621097e-08
	2.789654834031194e-06
	3.166140117723853e-07
	2.447726976571717e-01

 19	1.900000000000000e-01
	-5.309564475746324e-15
	-5.338281438536004e-19
	-1.362661820474209e-14
	6.420277007544612e-08
	3.049716100112102e-06
	3.457909028666218e-07
	2.447727002120460e-01

 20	2.000000000000000e-01
	-5.251067717773692e-15
	-5.471753356927792e-19
	-1.379396588021434e-14
	6.947197157498694e-08
	3.334889049870577e-06
	3.776919427804123e-07
	2.447727030095680e-01

 21	2.100000000000000e-01
	-5.193630615848882e-15
	-5.608180924518732e-19
	-1.396022335873101e-14
	7.513723687093443e-08
	3.647716521571290e-06
	4.125807529250521e-07
	2.447727060738890e-01

 22	2.200000000000001e-01
	-5.137262110786239e-15
	-5.747618341035387e-19
	-1.412532997597069e-14
	8.122443412608644e-08
	3.991003324788471e-06
	4.507476727270339e-07
	2.447727094317031e-01

 23	2.300000000000001e-01
	-5.081970223330439e-15
	-5.890120635448056e-19
	-1.428922682227180e-14
	8.776073561760704e-08
	4.367841051785129e-06
	4.925125019601092e-07
	2.447727131125343e-01

 24	2.400000000000001e-01
	-5.027762048306135e-15
	-6.035743683303905e-19
	-1.445185680934845e-14
	9.477464848267755e-08
	4.781634549142211e-06
	5.382274994947037e-07
	2.447727171490435e-01

 25	2.500000000000001e-01
	-4.974643751258370e-15
	-6.184544224702858e-19
	-1.461316473169349e-14
	1.022960430416936e-07
	5.236130020500905e-06
	5.882806549435225e-07
	2.447727215773565e-01

 26	2.600000000000001e-01
	-4.922620567539312e-15
	-6.336579882934099e-19
	-1.477309732257654e-14
	1.103561783765570e-07
	5.735444699935372e-06
	6.430992492376812e-07
	2.447727264374369e-01

 27	2.700000000000001e-01
	-4.871696803788223e-15
	-6.491909183783014e-19
	-1.493160330456954e-14
	1.189877248304268e-07
	6.284097999180052e-06
	7.031537193852322e-07
	2.447727317735016e-01

 28	2.800000000000001e-01
	-4.821875841742229e-15
	-6.650591575526536e-19
	-1.508863343455677e-14
	1.282247830850996e-07
	6.887043990509260e-06
	7.689618414929356e-07
	2.447727376344513e-01

 29	2.900000000000001e-01
	-4.773160144307863e-15
	-6.812687449628189e-19
	-1.524414054320966e-14
	1.381028994630721e-07
	7.549705040412135e-06
	8.410932445202214e-07
	2.447727440743699e-01

 30	3.000000000000001e-01
	-4.725551263815343e-15
	-6.978258162150177e-19
	-1.539807956893078e-14
	1.486590770936902e-07
	8.278006357356676e-06
	9.201742651305997e-07
	2.447727511530342e-01

 31	3.100000000000001e-01
	-4.679049852371175e-15
	-7.147366055891281e-19
	-1.555040758629297e-14
	1.599317825764227e-07
	9.078411160039995e-06
	1.006893151356667e-06
	2.447727589365090e-01

 32	3.200000000000001e-01
	-4.633655674217627e-15
	-7.320074483271195e-19
	-1.570108382902321e-14
	1.719609477699961e-07
	9.957956110932205e-06
	1.102005619554626e-06
	2.447727674977508e-01

 33	3.300000000000001e-01
	-4.589367620002779e-15
	-7.496447829970376e-19
	-1.585006970759987e-14
	1.847879663335250e-07
	1.092428659413168e-05
	1.206340765244552e-06
	2.447727769172869e-01

 34	3.400000000000001e-01
	-4.546183722859311e-15
	-7.676551539340714e-19
	-1.599732882155360e-14
	1.984556846457215e-07
	1.198569134732540e-05
	1.320807323878671e-06
	2.447727872839388e-01

 35	3.500000000000001e-01
	-4.504101176186290e-15
	-7.860452137604509e-19
	-1.614282696658013e-14
	2.130083867306908e-07
	1.315113588594502e-05
	1.446400272319193e-06
	2.447727986955893e-01

 36	3.600000000000002e-01
	-4.463116353024590e-15
	-8.048217259851196e-19
	-1.628653213659088e-14
	2.284917728243476e-07
	1.443029408467462e-05
	1.584207755822470e-06
	2.447728112600141e-01

 37	3.700000000000002e-01
	-4.423224826913661e-15
	-8.239915676849146e-19
	-1.642841452084427e-14
	2.449529312243361e-07
	1.583357720880534e-05
	1.735418318612035e-06
	2.447728250957649e-01

 38	3.800000000000002e-01
	-4.384421394115033e-15
	-8.435617322689497e-19
	-1.656844649631572e-14
	2.624403030790806e-07
	1.737215961733398e-05
	1.901328408690812e-06
	2.447728403330908e-01

 39	3.900000000000002e-01
	-4.346700097087137e-15
	-8.635393323271836e-19
	-1.670660261547656e-14
	2.810036397885130e-07
	1.905800029323188e-05
	2.083350119422551e-06
	2.447728571149373e-01

 40	4.000000000000002e-01
	-4.310054249093953e-15
	-8.839316025650743e-19
	-1.684285958966735e-14
	3.006939527109896e-07
	2.090385929632686e-05
	2.283019121659768e-06
	2.447728755979592e-01

 41	4.100000000000002e-01
	-4.274476459831173e-15
	-9.047459028259073e-19
	-1.697719626825867e-14
	3.215634548977412e-07
	2.292330818329177e-05
	2.502002730882808e-06
	2.447728959536113e-01

 42	4.200000000000002e-01
	-4.239958661952731e-15
	-9.259897212021742e-19
	-1.710959361380471e-14
	3.436654946093678e-07
	2.513073340015879e-05
	2.742108044052740e-06
	2.447729183692564e-01

 43	4.300000000000002e-01
	-4.206492138382421e-15
	-9.476706772377173e-19
	-1.724003467340121e-14
	3.670544804079239e-07
	2.754133162848543e-05
	3.005290070796956e-06
	2.447729430493147e-01

 44	4.400000000000002e-01
	-4.174067550296187e-15
	-9.697965252225043e-19
	-1.736850454646721e-14
	3.917857976643086e-07
	3.017109605984773e-05
	3.293659773308095e-06
	2.447729702164375e-01

 45	4.500000000000002e-01
	-4.142674965663169e-15
	-9.923751575813918e-19
	-1.749499034917430e-14
	4.179157163739829e-07
	3.303679258774317e-05
	3.609491919135130e-06
	2.447730001126961e-01

 46	4.600000000000002e-01
	-4.112303888235720e-15
	-1.015414608359005e-18
	-1.761948117575191e-14
	4.455012902351175e-07
	3.615592494419270e-05
	3.955232641105876e-06
	2.447730330007751e-01

 47	4.700000000000003e-01
	-4.082943286881707e-15
	-1.038923056802410e-18
	-1.774196805689907e-14
	4.746002470122376e-07
	3.954668787301248e-05
	4.333506589191915e-06
	2.447730691651623e-01

 48	4.800000000000003e-01
	-4.054581625155699e-15
	-1.062908831043261e-18
	-1.786244391553507e-14
	5.052708702857768e-07
	4.322790752525689e-05
	4.747123550490713e-06
	2.447731089132986e-01

 49	4.900000000000003e-01
	-4.027206891009265e-15
	-1.087380411881796e-18
	-1.798090352012081e-14
	5.375718727733028e-07
	4.721896838650651e-05
	5.199084405948636e-06
	2.447731525767045e-01

 50	5.000000000000002e-01
	-4.000806626544676e-15
	-1.112346436674334e-18
	-1.809734343578236e-14
	5.715622615018856e-07
	5.153972620172657e-05
	5.692586286302227e-06
	2.447732005120389e-01

 51	5.100000000000002e-01
	-3.975367957720306e-15
	-1.137815703326413e-18
	-1.821176197346600e-14
	6.073011952124816e-07
	5.621040655168868e-05
	6.231026785289148e-06
	2.447732531020695e-01

 52	5.200000000000002e-01
	-3.950877623920908e-15
	-1.163797174393976e-18
	-1.832415913735034e-14
	6.448478344857349e-07
	6.125148895489464e-05
	6.818007085797719e-06
	2.447733107565484e-01

 53	5.300000000000002e-01
	-3.927322007310243e-15
	-1.190299981294210e-18
	-1.843453657073787e-14
	6.842611851936759e-07
	6.668357661894679e-05
	7.457333854595777e-06
	2.447733739129636e-01

 54	5.400000000000003e-01
	-3.904687161888419e-15
	-1.217333428629224e-18
	-1.854289750064311e-14
	7.255999360020715e-07
	7.252725224255459e-05
	8.153019763891327e-06
	2.447734430371206e-01

 55	5.500000000000003e-01
	-3.882958842181540e-15
	-1.244906998624062e-18
	-1.864924668128864e-14
	7.689222907721096e-07
	7.880292056981479e-05
	8.909282503481925e-06
	2.447735186235632e-01

 56	5.600000000000003e-01
	-3.862122531495702e-15
	-1.273030355682305e-18
	-1.875359033671435e-14
	8.142857968362801e-07
	8.553063871675963e-05
	9.730542155856847e-06
	2.447736011957819e-01

 57	5.700000000000003e-01
	-3.842163469673077e-15
	-1.301713351060943e-18
	-1.885593610269776e-14
	8.617471702493569e-07
	9.272993561986087e-05
	1.062141681847024e-05
	2.447736913061883e-01

 58	5.800000000000003e-01
	-3.823066680292266e-15
	-1.330966027668319e-18
	-1.895629296817657e-14
	9.113621192389617e-07
	1.004196222894750e-04
	1.158671637257926e-05
	2.447737895358391e-01

 59	5.900000000000003e-01
	-3.804816997260744e-15
	-1.360798624986702e-18
	-1.905467121635533e-14
	9.631851671987855e-07
	1.086175948793934e-04
	1.263143431653614e-05
	2.447738964938813e-01

 60	6.000000000000003e-01
	-3.787399090751594e-15
	-1.391221584123171e-18
	-1.915108236567127e-14
	1.017269476678208e-06
	1.173406328971165e-04
	1.376073760313334e-05
	2.447740128166944e-01

 61	6.100000000000003e-01
	-3.770797492442243e-15
	-1.422245552991641e-18
	-1.924553911078431e-14
	1.073666675921698e-06
	1.266041951680695e-04
	1.497995444533146e-05
	2.447741391667135e-01

 62	6.200000000000003e-01
	-3.754996620017373e-15
	-1.453881391628554e-18
	-1.933805526374824e-14
	1.132426689596880e-06
	1.364222164203600e-04
	1.629456008214765e-05
	2.447742762309321e-01

 63	6.300000000000003e-01
	-3.739980800902926e-15
	-1.486140177646447e-18
	-1.942864569551057e-14
	1.193597575418656e-06
	1.468069075646060e-04
	1.771016052624803e-05
	2.447744247190452e-01

 64	6.400000000000003e-01
	-3.725734295202834e-15
	-1.519033211827463e-18
	-1.951732627787953e-14
	1.257225368424773e-06
	1.577685628961155e-04
	1.923247434635913e-05
	2.447745853612584e-01

 65	6.500000000000004e-01
	-3.712241317814576e-15
	-1.552572023861459e-18
	-1.960411382608688e-14
	1.323353934683324e-06
	1.693153775355751e-04
	2.086731257040061e-05
	2.447747589057431e-01

 66	6.600000000000004e-01
	-3.699486059703591e-15
	-1.586768378231313e-18
	-1.968902604206715e-14
	1.392024836212399e-06
	1.814532784420624e-04
	2.262055682856463e-05
	2.447749461157734e-01

 67	6.700000000000004e-01
	-3.687452708321081e-15
	-1.621634280249541e-18
	-1.977208145856340e-14
	1.463277208864213e-06
	1.941857722731031e-04
	2.449813588868508e-05
	2.447751477665234e-01

 68	6.800000000000004e-01
	-3.676125467153280e-15
	-1.657181982250229e-18
	-1.985329938416142e-14
	1.537147654869219e-06
	2.075138132272243e-04
	2.650600076836063e-05
	2.447753646415597e-01

 69	6.900000000000004e-01
	-3.665488574394332e-15
	-1.693423989939731e-18
	-1.993269984934488e-14
	1.613670151649210e-06
	2.214356937841193e-04
	2.865009863861457e-05
	2.447755975290845e-01

 70	7.000000000000004e-01
	-3.655526320737965e-15
	-1.730373068910690e-18
	-2.001030355365559e-14
	1.692875978392340e-06
	2.359469609578583e-04
	3.093634576159350e-05
	2.447758472179224e-01

 71	7.100000000000004e-01
	-3.646223066286906e-15
	-1.768042251323434e-18
	-2.008613181403408e-14
	1.774793661737555e-06
	2.510403603039297e-04
	3.337059972913295e-05
	2.447761144933179e-01

 72	7.200000000000004e-01
	-3.637563256581744e-15
	-1.806444842759232e-18
	-2.016020651440786e-14
	1.859448941743481e-06
	2.667058094785445e-04
	3.595863128925498e-05
	2.447764001325896e-01

 73	7.300000000000004e-01
	-3.629531437753925e-15
	-1.845594429250057e-18
	-2.023255005658626e-14
	1.946864759119096e-06
	2.829304026483372e-04
	3.870609606317262e-05
	2.447767049006833e-01

 74	7.400000000000004e-01
	-3.622112270810228e-15
	-1.885504884489485e-18
	-2.030318531251386e-14
	2.037061264474292e-06
	2.996984465023763e-04
	4.161850646563303e-05
	2.447770295456844e-01

 75	7.500000000000004e-01
	-3.615290545058675e-15
	-1.926190377229868e-18
	-2.037213557792575e-14
	2.130055850111069e-06
	3.169915280403323e-04
	4.470120414605297e-05
	2.447773747943635e-01

 76	7.600000000000005e-01
	-3.609051190687737e-15
	-1.967665378870775e-18
	-2.043942452744249e-14
	2.225863204625814e-06
	3.347886137161868e-04
	4.795933326664497e-05
	2.447777413477911e-01

 77	7.700000000000005e-01
	-3.603379290512969e-15
	-2.009944671244487e-18
	-2.050507617113462e-14
	2.324495390334535e-06
	3.530661789223224e-04
	5.139781492651293e-05
	2.447781298770907e-01

 78	7.800000000000005e-01
	-3.598260090907257e-15
	-2.053043354603041e-18
	-2.056911481258050e-14
	2.425961943271309e-06
	3.717983662207951e-04
	5.502132302759220e-05
	2.447785410194122e-01

 79	7.900000000000005e-01
	-3.593679011931948e-15
	-2.096976855814441e-18
	-2.063156500843588e-14
	2.530269995252055e-06
	3.909571701834347e-04
	5.883426185959516e-05
	2.447789753741388e-01

 80	8.000000000000005e-01
	-3.589621656688247e-15
	-2.141760936772110e-18
	-2.069245152952656e-14
	2.637424417245237e-06
	4.105126462050781e-04
	6.284074565715431e-05
	2.447794334994306e-01

 81	8.100000000000005e-01
	-3.586073819909051e-15
	-2.187411703025498e-18
	-2.075179932347177e-14
	2.747427983055264e-06
	4.304331402187375e-04
	6.704458035374795e-05
	2.447799159091035e-01

 82	8.200000000000005e-01
	-3.583021495812841e-15
	-2.233945612637215e-18
	-2.080963347883938e-14
	2.860281552106754e-06
	4.506855358789569e-04
	7.144924772435825e-05
	2.447804230699290e-01

 83	8.300000000000005e-01
	-3.580450885241977e-15
	-2.281379485274679e-18
	-2.086597919083033e-14
	2.975984269924115e-06
	4.712355154993729e-04
	7.605789207298439e-05
	2.447809553993511e-01

 84	8.400000000000005e-01
	-3.578348402108745e-15
	-2.329730511542029e-18
	-2.092086172848495e-14
	3.094533784734399e-06
	4.920478308384794e-04
	8.087330958292665e-05
	2.447815132636793e-01

 85	8.500000000000005e-01
	-3.576700679172958e-15
	-2.379016262561176e-18
	-2.097430640339990e-14
	3.215926478485278e-06
	5.130865797271895e-04
	8.589794040810896e-05
	2.447820969767513e-01

 86	8.600000000000005e-01
	-3.575494573175475e-15
	-2.429254699808562e-18
	-2.102633853994053e-14
	3.340157710466884e-06
	5.343154845229932e-04
	9.113386354350680e-05
	2.447827067990847e-01

 87	8.700000000000006e-01
	-3.574717169352606e-15
	-2.480464185216279e-18
	-2.107698344693044e-14
	3.467222071656853e-06
	5.556981684556716e-04
	9.658279447291583e-05
	2.447833429375260e-01

 88	8.800000000000006e-01
	-3.574355785356150e-15
	-2.532663491545581e-18
	-2.112626639079666e-14
	3.597113647873729e-06
	5.771984260931659e-04
	1.022460855537083e-04
	2.447840055453707e-01

 89	8.900000000000006e-01
	-3.574397974604499e-15
	-2.585871813041822e-18
	-2.117421257014584e-14
	3.729826289823187e-06
	5.987804843953650e-04
	1.081247290616388e-04
	2.447846947229547e-01

 90	9.000000000000006e-01
	-3.574831529089759e-15
	-2.640108776379220e-18
	-2.122084709174499e-14
	3.865353888154416e-06
	6.204092511286036e-04
	1.142193627849330e-04
	2.447854105186948e-01

 91	9.100000000000006e-01
	-3.575644481666299e-15
	-2.695394451905524e-18
	-2.126619494787705e-14
	4.003690651707717e-06
	6.420505477731590e-04
	1.205302780263993e-04
	2.447861529305317e-01

 92	9.200000000000006e-01
	-3.576825107845575e-15
	-2.751749365195551e-18
	-2.131028099504048e-14
	4.144831387226092e-06
	6.636713244575766e-04
	1.270574298456061e-04
	2.447869219077814e-01

 93	9.300000000000006e-01
	-3.578361927121783e-15
	-2.809194508924291e-18
	-2.135312993395996e-14
	4.288771778921655e-06
	6.852398548848006e-04
	1.338004493507009e-04
	2.447877173532856e-01

 94	9.400000000000006e-01
	-3.580243703853377e-15
	-2.867751355069175e-18
	-2.139476629087323e-14
	4.435508666425733e-06
	7.067259096623656e-04
	1.407586578313019e-04
	2.447885391259094e-01

 95	9.500000000000006e-01
	-3.582459447723893e-15
	-2.927441867453241e-18
	-2.143521440005889e-14
	4.585040319809930e-06
	7.281009069008992e-04
	1.479310825103662e-04
	2.447893870432640e-01

 96	9.600000000000006e-01
	-3.584998413806159e-15
	-2.988288514639482e-18
	-2.147449838756789e-14
	4.737366710535395e-06
	7.493380393893065e-04
	1.553164736837839e-04
	2.447902608846531e-01

 97	9.700000000000006e-01
	-3.587850102252970e-15
	-3.050314283187989e-18
	-2.151264215612115e-14
	4.892489777369900e-06
	7.704123780819051e-04
	1.629133230117623e-04
	2.447911603941792e-01

 98	9.800000000000006e-01
	-3.591004257636926e-15
	-3.113542691288615e-18
	-2.154966937113470e-14
	5.050413686499431e-06
	7.913009520326918e-04
	1.707198827254333e-04
	2.447920852839800e-01

 99	9.900000000000007e-01
	-3.594450867961302e-15
	-3.177997802780122e-18
	-2.158560344783381e-14
	5.211145085252371e-06
	8.119828052781609e-04
	1.787341855153940e-04
	2.447930352375227e-01

 100	1.000000000000001e+00
	-3.598180163363947e-15
	-3.243704241569478e-18
	-2.162046753941634e-14
	5.374693349043821e-06
	8.324390314963209e-04
	1.869540648755616e-04
	2.447940099129505e-01

 101	1.010000000000001e+00
	-3.602182614534535e-15
	-3.310687206464176e-18
	-2.165428452622632e-14
	5.541070821335392e-06
	8.526527875523871e-04
	1.953771756855099e-04
	2.447950089464094e-01

 102	1.020000000000001e+00
	-3.606448930865876e-15
	-3.378972486430806e-18
	-2.168707700589801e-14
	5.710293046586022e-06
	8.726092872780482e-04
	2.040010148267660e-04
	2.447960319553536e-01

 103	1.030000000000001e+00
	-3.610970058358518e-15
	-3.448586476294376e-18
	-2.171886728443127e-14
	5.882378996343407e-06
	8.922957770209282e-04
	2.128229416430589e-04
	2.447970785417528e-01

 104	1.040000000000001e+00
	-3.615737177297772e-15
	-3.519556192892272e-18
	-2.174967736815921e-14
	6.057351288788401e-06
	9.117014946437543e-04
	2.218401980706054e-04
	2.447981482952281e-01

 105	1.050000000000001e+00
	-3.620741699721151e-15
	-3.591909291698381e-18
	-2.177952895656902e-14
	6.235236402198323e-06
	9.308176137511703e-04
	2.310499282818874e-04
	2.447992407960329e-01

 106	1.060000000000001e+00
	-3.625975266693903e-15
	-3.665674083932251e-18
	-2.180844343593827e-14
	6.416064882935806e-06
	9.496371749780451e-04
	2.404491977044491e-04
	2.448003556179146e-01

 107	1.070000000000001e+00
	-3.631429745409327e-15
	-3.740879554169421e-18
	-2.183644187374829e-14
	6.599871548699635e-06
	9.681550061906593e-04
	2.500350112947199e-04
	2.448014923307978e-01

 108	1.080000000000001e+00
	-3.637097226129982e-15
	-3.817555378469987e-18
	-2.186354501383813e-14
	6.786695687891342e-06
	9.863676334347783e-04
	2.598043309653257e-04
	2.448026505032944e-01

 109	1.090000000000001e+00
	-3.642970018985228e-15
	-3.895731943041111e-18
	-2.188977327226213e-14
	6.976581256056980e-06
	1.004273184417037e-03
	2.697540920824573e-04
	2.448038297050343e-01

 110	1.100000000000001e+00
	-3.649040650639709e-15
	-3.975440363452524e-18
	-2.191514673381609e-14
	7.169577070458580e-06
	1.021871286232871e-03
	2.798812189674052e-04
	2.448050295088046e-01

 111	1.110000000000001e+00
	-3.655301860846792e-15
	-4.056712504422429e-18
	-2.193968514919668e-14
	7.365737003914181e-06
	1.039162958959883e-03
	2.901826393530274e-04
	2.448062494924835e-01

 112	1.120000000000001e+00
	-3.661746598900493e-15
	-4.139581000192930e-18
	-2.196340793276040e-14
	7.565120179120610e-06
	1.056150506624673e-03
	3.006552977615500e-04
	2.448074892407991e-01

 113	1.130000000000001e+00
	-3.668368019998140e-15
	-4.224079275514370e-18
	-2.198633416084929e-14
	7.767791164740730e-06
	1.072837406928217e-03
	3.112961677845872e-04
	2.448087483468797e-01

 114	1.140000000000001e+00
	-3.675159481526169e-15
	-4.310241567259074e-18
	-2.200848257065077e-14
	7.973820174597415e-06
	1.089228200983527e-03
	3.221022632594413e-04
	2.448100264136187e-01

 115	1.150000000000001e+00
	-3.682114539280169e-15
	-4.398102946685235e-18
	-2.202987155956120e-14
	8.183283271371620e-06
	1.105328384183552e-03
	3.330706483475991e-04
	2.448113230548646e-01

 116	1.160000000000001e+00
	-3.689226943629986e-15
	-4.487699342372397e-18
	-2.205051918502241e-14
	8.396262576253277e-06
	1.121144299180069e-03
	3.441984465318235e-04
	2.448126378964313e-01

 117	1.170000000000001e+00
	-3.696490635639881e-15
	-4.579067563851867e-18
	-2.207044316480267e-14
	8.612846486043112e-06
	1.136683031818674e-03
	3.554828485573743e-04
	2.448139705769277e-01

 118	1.180000000000001e+00
	-3.703899743153507e-15
	-4.672245325954301e-18
	-2.208966087769350e-14
	8.833129899250314e-06
	1.151952310742778e-03
	3.669211193506301e-04
	2.448153207484533e-01

 119	1.190000000000001e+00
	-3.711448576852415e-15
	-4.767271273898818e-18
	-2.210818936459566e-14
	9.057214452780261e-06
	1.166960411253508e-03
	3.785106039548982e-04
	2.448166880771351e-01

 120	1.200000000000001e+00
	-3.719131626296426e-15
	-4.864185009149501e-18
	-2.212604532996810e-14
	9.285208770856807e-06
	1.181716063893225e-03
	3.902487325284690e-04
	2.448180722435170e-01

 121	1.210000000000001e+00
	-3.726943555953921e-15
	-4.963027116064145e-18
	-2.214324514361484e-14
	9.517228727876507e-06
	1.196228368109578e-03
	4.021330244540309e-04
	2.448194729428304e-01

 122	1.220000000000001e+00
	-3.734879201229328e-15
	-5.063839189362492e-18
	-2.215980484278572e-14
	9.753397726951193e-06
	1.210506711255377e-03
	4.141610916116345e-04
	2.448208898851612e-01

 123	1.230000000000001e+00
	-3.742933564494299e-15
	-5.166663862441933e-18
	-2.217574013456822e-14
	9.993846995960528e-06
	1.224560693087630e-03
	4.263306408695027e-04
	2.448223227954873e-01

 124	1.240000000000001e+00
	-3.751101811129436e-15
	-5.271544836569391e-18
	-2.219106639854780e-14
	1.023871590300738e-05
	1.238400055846511e-03
	4.386394758481282e-04
	2.448237714136353e-01

 125	1.250000000000001e+00
	-3.759379265581872e-15
	-5.378526910979793e-18
	-2.220579868971641e-14
	1.048815229325086e-05
	1.252034619922608e-03
	4.510854980135741e-04
	2.448252354941472e-01

 126	1.260000000000001e+00
	-3.767761407444665e-15
	-5.487656013911209e-18
	-2.221995174160830e-14
	1.074231284918340e-05
	1.265474225057597e-03
	4.636667071556317e-04
	2.448267148060759e-01

 127	1.270000000000001e+00
	-3.776243867562515e-15
	-5.598979234609911e-18
	-2.223353996964440e-14
	1.100136347652186e-05
	1.278728676969611e-03
	4.763812013056721e-04
	2.448282091327076e-01

 128	1.280000000000001e+00
	-3.784822424168774e-15
	-5.712544856337990e-18
	-2.224657747466686e-14
	1.126547971799890e-05
	1.291807699249149e-03
	4.892271761476846e-04
	2.448297182712318e-01

 129	1.290000000000001e+00
	-3.793492999057817e-15
	-5.828402390418737e-18
	-2.225907804664614e-14
	1.153484719747288e-05
	1.304720890334190e-03
	5.022029239742592e-04
	2.448312420323643e-01

 130	1.300000000000001e+00
	-3.802251653796406e-15
	-5.946602611355872e-18
	-2.227105516854457e-14
	1.180966209692283e-05
	1.317477685343445e-03
	5.153068322372530e-04
	2.448327802399149e-01

 131	1.310000000000001e+00
	-3.811094585978010e-15
	-6.067197593062688e-18
	-2.228252202032003e-14
	1.209013166905874e-05
	1.330087322523379e-03
	5.285373817404246e-04
	2.448343327303382e-01

 132	1.320000000000001e+00
	-3.820018125522821e-15
	-6.190240746242084e-18
	-2.229349148305539e-14
	1.237647478846602e-05
	1.342558814047993e-03
	5.418931445189257e-04
	2.448358993522516e-01

 133	1.330000000000001e+00
	-3.829018731026402e-15
	-6.315786856954733e-18
	-2.230397614319940e-14
	1.266892254440852e-05
	1.354900920898682e-03
	5.553727814477966e-04
	2.448374799659200e-01

 134	1.340000000000001e+00
	-3.838092986159655e-15
	-6.443892126419958e-18
	-2.231398829690562e-14
	1.296771887864537e-05
	1.367122131544606e-03
	5.689750396188158e-04
	2.448390744427314e-01

 135	1.350000000000001e+00
	-3.847237596122300e-15
	-6.574614212090580e-18
	-2.232353995445691e-14
	1.327312127187488e-05
	1.379230644141383e-03
	5.826987495223001e-04
	2.448406826646754e-01

 136	1.360000000000001e+00
	-3.856449384151769e-15
	-6.708012270048052e-18
	-2.233264284476336e-14
	1.358540148270489e-05
	1.391234351966885e-03
	5.965428220676304e-04
	2.448423045237884e-01

 137	1.370000000000001e+00
	-3.865725288089380e-15
	-6.844146998762271e-18
	-2.234130841992281e-14
	1.390484634336460e-05
	1.403140831816359e-03
	6.105062454734213e-04
	2.448439399216151e-01

 138	1.380000000000001e+00
	-3.875062357005248e-15
	-6.983080684268167e-18
	-2.234954785983312e-14
	1.423175861672560e-05
	1.414957335085541e-03
	6.245880820555773e-04
	2.448455887686618e-01

 139	1.390000000000001e+00
	-3.884457747883318e-15
	-7.124877246804602e-18
	-2.235737207684615e-14
	1.456645791958812e-05
	1.426690781278384e-03
	6.387874649387419e-04
	2.448472509838600e-01

 140	1.400000000000001e+00
	-3.893908722367352e-15
	-7.269602288972404e-18
	-2.236479172045464e-14
	1.490928171762049e-05
	1.438347753685810e-03
	6.531035947141329e-04
	2.448489264940265e-01

 141	1.410000000000001e+00
	-3.903412643569181e-15
	-7.417323145461997e-18
	-2.237181718200264e-14
	1.526058639781384e-05
	1.449934496992460e-03
	6.675357360641772e-04
	2.448506152333429e-01

 142	1.420000000000001e+00
	-3.912966972939412e-15
	-7.568108934408984e-18
	-2.237845859941187e-14
	1.562074842484339e-05
	1.461456916580236e-03
	6.820832143720897e-04
	2.448523171428384e-01

 143	1.430000000000001e+00
	-3.922569267201627e-15
	-7.722030610434740e-18
	-2.238472586191591e-14
	1.599016558830762e-05
	1.472920579309313e-03
	6.967454123322140e-04
	2.448540321698866e-01

 144	1.440000000000001e+00
	-3.932217175350041e-15
	-7.879161019434407e-18
	-2.239062861479551e-14
	1.636925834846148e-05
	1.484330715569688e-03
	7.115217665748570e-04
	2.448557602677172e-01

 145	1.450000000000001e+00
	-3.941908435711134e-15
	-8.039574955172823e-18
	-2.239617626410795e-14
	1.675847128876930e-05
	1.495692222408641e-03
	7.264117643173008e-04
	2.448575013949378e-01

 146	1.460000000000001e+00
	-3.951640873069301e-15
	-8.203349217755812e-18
	-2.240137798140473e-14
	1.715827468439022e-05
	1.507009667551644e-03
	7.414149400508316e-04
	2.448592555150867e-01

 147	1.470000000000001e+00
	-3.961412395856118e-15
	-8.370562674043961e-18
	-2.240624270843157e-14
	1.756916619657872e-05
	1.518287294146217e-03
	7.565308722718855e-04
	2.448610225961687e-01

 148	1.480000000000001e+00
	-3.971220993403828e-15
	-8.541296320079380e-18
	-2.241077916180548e-14
	1.799167270393878e-05
	1.529529026069242e-03
	7.717591802636221e-04
	2.448628026102459e-01

 149	1.490000000000001e+00
	-3.981064733262005e-15
	-8.715633345598526e-18
	-2.241499583766399e-14
	1.842635228253914e-05
	1.540738473649523e-03
	7.870995209329103e-04
	2.448645955330207e-01

 150	1.500000000000001e+00
	-3.990941758577439e-15
	-8.893659200708845e-18
	-2.241890101628227e-14
	1.887379634806740e-05
	1.551918939667176e-03
	8.025515857061165e-04
	2.448664013434352e-01

 151	1.510000000000001e+00
	-4.000850285536804e-15
	-9.075461664805887e-18
	-2.242250276665353e-14
	1.933463197450260e-05
	1.563073425500897e-03
	8.181150974857966e-04
	2.448682200233019e-01

 152	1.520000000000001e+00
	-4.010788600871325e-15
	-9.261130917815190e-18
	-2.242580895102939e-14
	1.980952440522783e-05
	1.574204637302986e-03
	8.337898076692183e-04
	2.448700515569271e-01

 153	1.530000000000001e+00
	-4.020755059423211e-15
	-9.450759613842660e-18
	-2.242882722941625e-14