Title: ** sch_path: /home/andylithia/openmpw/project-yatsuhashi-chip1/xschem/gmid_test/nmos_test.sch
Date: Sun Jul 17 22:51:45  2022
Plotname: DC transfer characteristic
Flags: real
No. Variables: 8
No. Points: 181
Variables:
	0	v(v-sweep)	voltage
	1	@m.xm1.msky130_fd_pr__nfet_01v8[cgb]	capacitance
	2	@m.xm1.msky130_fd_pr__nfet_01v8[cgd]	capacitance
	3	@m.xm1.msky130_fd_pr__nfet_01v8[cgs]	capacitance
	4	@m.xm1.msky130_fd_pr__nfet_01v8[gds]	admittance
	5	@m.xm1.msky130_fd_pr__nfet_01v8[gm]	admittance
	6	i(@m.xm1.msky130_fd_pr__nfet_01v8[id])	current
	7	v(@m.xm1.msky130_fd_pr__nfet_01v8[vth])	voltage
Values:
 0	0.000000000000000e+00
	-4.080788023772875e-15
	-8.363498920007819e-19
	-5.042036517530045e-15
	1.418860011549121e-08
	5.414638065270918e-07
	5.557785573843197e-08
	3.035978558901362e-01

 1	1.000000000000000e-02
	-4.034846066123326e-15
	-8.626068092219061e-19
	-5.144847155201838e-15
	1.561357409054827e-08
	5.960570550508369e-07
	6.126113869207497e-08
	3.035978565227785e-01

 2	2.000000000000000e-02
	-3.989213653265362e-15
	-8.896739336073609e-19
	-5.248219382017359e-15
	1.717680945530370e-08
	6.560892743552014e-07
	6.751711806211642e-08
	3.035978572191731e-01

 3	3.000000000000000e-02
	-3.943906873740776e-15
	-9.175754039572495e-19
	-5.352103804419818e-15
	1.889102158054996e-08
	7.221034861596208e-07
	7.440285421128381e-08
	3.035978579856705e-01

 4	4.000000000000000e-02
	-3.898941825471746e-15
	-9.463360644347830e-19
	-5.456450172791828e-15
	2.076999805857100e-08
	7.946989237566811e-07
	8.198111378924928e-08
	3.035978588292574e-01

 5	5.000000000000000e-02
	-3.854334574760702e-15
	-9.759814867205445e-19
	-5.561207471778365e-15
	2.282867625044679e-08
	8.745373696972546e-07
	9.032096291280860e-08
	3.035978597576229e-01

 6	6.000000000000000e-02
	-3.810101115447024e-15
	-1.006537993003004e-18
	-5.666324013250379e-15
	2.508322482787911e-08
	9.623502873300291e-07
	9.949842761018863e-08
	3.035978607792341e-01

 7	7.000000000000001e-02
	-3.766257328371395e-15
	-1.038032679840762e-18
	-5.771747531574508e-15
	2.755112932113313e-08
	1.058946849615546e-06
	1.095972299754833e-07
	3.035978619034070e-01

 8	8.000000000000000e-02
	-3.722818941298816e-15
	-1.070493442934030e-18
	-5.877425280839442e-15
	3.025128165873340e-08
	1.165222980491017e-06
	1.207096095719582e-07
	3.035978631404113e-01

 9	9.000000000000000e-02
	-3.679801489449616e-15
	-1.103949002843649e-18
	-5.983304133679009e-15
	3.320407365606774e-08
	1.282171536653332e-06
	1.329372408381708e-07
	3.035978645015660e-01

 10	9.999999999999999e-02
	-3.637220276786032e-15
	-1.138428931698486e-18
	-6.089330681321156e-15
	3.643149437903199e-08
	1.410893770825548e-06
	1.463922585949670e-07
	3.035978659993550e-01

 11	1.100000000000000e-01
	-3.595090338198421e-15
	-1.173963680933082e-18
	-6.195451334485340e-15
	3.995723127548070e-08
	1.552612231198526e-06
	1.611984052299187e-07
	3.035978676475541e-01

 12	1.200000000000000e-01
	-3.553426402731479e-15
	-1.210584610099503e-18
	-6.301612424744999e-15
	4.380677493167634e-08
	1.708685265547810e-06
	1.774923147516171e-07
	3.035978694613752e-01

 13	1.300000000000000e-01
	-3.512242857985365e-15
	-1.248324016799229e-18
	-6.407760305969931e-15
	4.800752727338634e-08
	1.880623312196767e-06
	1.954249506598175e-07
	3.035978714576242e-01

 14	1.400000000000000e-01
	-3.471553715821260e-15
	-1.287215167782874e-18
	-6.513841455462115e-15
	5.258891299203573e-08
	2.070107173123256e-06
	2.151632164652833e-07
	3.035978736548836e-01

 15	1.500000000000000e-01
	-3.431372579493767e-15
	-1.327292331267565e-18
	-6.619802574401478e-15
	5.758249393573590e-08
	2.279008476587402e-06
	2.368917597075972e-07
	3.035978760737079e-01

 16	1.600000000000000e-01
	-3.391712612325360e-15
	-1.368590810523911e-18
	-6.725590687221876e-15
	6.302208616343533e-08
	2.509412547081819e-06
	2.608149924465556e-07
	3.035978787368593e-01

 17	1.700000000000000e-01
	-3.352586508029658e-15
	-1.411146978787118e-18
	-6.831153239545402e-15
	6.894387931836272e-08
	2.763643908451320e-06
	2.871593534232878e-07
	3.035978816695437e-01

 18	1.800000000000000e-01
	-3.314006462781665e-15
	-1.454998315548531e-18
	-6.936438194311060e-15
	7.538655793473602e-08
	3.044294650845681e-06
	3.161758393724180e-07
	3.035978848997087e-01

 19	1.900000000000000e-01
	-3.275984149123479e-15
	-1.500183444287095e-18
	-7.041394125746886e-15
	8.239142425009615e-08
	3.354255892791219e-06
	3.481428352803057e-07
	3.035978884583491e-01

 20	2.000000000000000e-01
	-3.238530691784175e-15
	-1.546742171702345e-18
	-7.145970310846878e-15
	9.000252205492559e-08
	3.696752564985861e-06
	3.833692756781873e-07
	3.035978923798599e-01

 21	2.100000000000000e-01
	-3.201656645482160e-15
	-1.594715528513520e-18
	-7.250116818030464e-15
	9.826676107223528e-08
	4.075381731222784e-06
	4.221981712748189e-07
	3.035978967024349e-01

 22	2.200000000000001e-01
	-3.165371974767638e-15
	-1.644145811892331e-18
	-7.353784592679660e-15
	1.072340413230021e-07
	4.494154642788162e-06
	4.650105372985862e-07
	3.035979014684970e-01

 23	2.300000000000001e-01
	-3.129686035951829e-15
	-1.695076629599737e-18
	-7.456925539268258e-15
	1.169573768994454e-07
	4.957542694327920e-06
	5.122297617485418e-07
	3.035979067251837e-01

 24	2.400000000000001e-01
	-3.094607561158753e-15
	-1.747552945900236e-18
	-7.559492599817740e-15
	1.274930185376662e-07
	5.470527410030409e-06
	5.643264532468429e-07
	3.035979125248992e-01

 25	2.500000000000001e-01
	-3.060144644523799e-15
	-1.801621129331217e-18
	-7.661439828438103e-15
	1.389005743549712e-07
	6.038654537490448e-06
	6.218238092265036e-07
	3.035979189259007e-01

 26	2.600000000000001e-01
	-3.026304730552799e-15
	-1.857329002407475e-18
	-7.762722461733282e-15
	1.512431280955753e-07
	6.668092261263011e-06
	6.853035456459872e-07
	3.035979259929624e-01

 27	2.700000000000001e-01
	-2.993094604643716e-15
	-1.914725893345206e-18
	-7.863296984876817e-15
	1.645873542122892e-07
	7.365693467428618e-06
	7.554124291512629e-07
	3.035979337980990e-01

 28	2.800000000000001e-01
	-2.960520385762836e-15
	-1.973862689893766e-18
	-7.963121193187192e-15
	1.790036291015274e-07
	8.139061893136342e-06
	8.328694514449742e-07
	3.035979424213785e-01

 29	2.900000000000001e-01
	-2.928587521256318e-15
	-2.034791895367638e-18
	-8.062154249059174e-15
	1.945661378054216e-07
	8.996621879966908e-06
	9.184736834003304e-07
	3.035979519517799e-01

 30	3.000000000000001e-01
	-2.897300783768261e-15
	-2.097567686974724e-18
	-8.160356734132026e-15
	2.113529754980841e-07
	9.947691316256429e-06
	1.013112842990175e-06
	3.035979624881557e-01

 31	3.100000000000001e-01
	-2.866664270226448e-15
	-2.162245976542685e-18
	-8.257690696602589e-15
	2.294462430842035e-07
	1.100255720089050e-05
	1.117772606203764e-06
	3.035979741402766e-01

 32	3.200000000000001e-01
	-2.836681402847684e-15
	-2.228884473748742e-18
	-8.354119693617137e-15
	2.489321362572614e-07
	1.217255308967577e-05
	1.233546683604432e-06
	3.035979870299400e-01

 33	3.300000000000001e-01
	-2.807354932106188e-15
	-2.297542751964329e-18
	-8.449608828700914e-15
	2.699010273922401e-07
	1.347013749605962e-05
	1.361647676856311e-06
	3.035980012921841e-01

 34	3.400000000000001e-01
	-2.778686941600230e-15
	-2.368282316830499e-18
	-8.544124784210179e-15
	2.924475396844229e-07
	1.490897211234526e-05
	1.503418719246981e-06
	3.035980170765944e-01

 35	3.500000000000001e-01
	-2.750678854744738e-15
	-2.441166677686087e-18
	-8.637635848816295e-15
	3.166706129919949e-07
	1.650399849819446e-05
	1.660345891803733e-06
	3.035980345486738e-01

 36	3.600000000000002e-01
	-2.723331443211060e-15
	-2.516261421976543e-18
	-8.730111940054463e-15
	3.426735608958212e-07
	1.827151165371712e-05
	1.834071391922458e-06
	3.035980538913186e-01

 37	3.700000000000002e-01
	-2.696644837028789e-15
	-2.593634292776528e-18
	-8.821524621993302e-15
	3.705641185558900e-07
	2.022922865959868e-05
	2.026407414424644e-06
	3.035980753063627e-01

 38	3.800000000000002e-01
	-2.670618536259473e-15
	-2.673355269567376e-18
	-8.911847118102656e-15
	4.004544810200609e-07
	2.239635033246081e-05
	2.239350685601267e-06
	3.035980990161974e-01

 39	3.900000000000002e-01
	-2.645251424147209e-15
	-2.755496652416331e-18
	-9.001054319417834e-15
	4.324613317277937e-07
	2.479361361726214e-05
	2.475097569136598e-06
	3.035981252654499e-01

 40	4.000000000000002e-01
	-2.620541781647640e-15
	-2.840133149711285e-18
	-9.089122788117220e-15
	4.667058610490636e-07
	2.744333222851151e-05
	2.736059638947997e-06
	3.035981543227288e-01

 41	4.100000000000002e-01
	-2.596487303233471e-15
	-2.927341969613373e-18
	-9.176030756648382e-15
	5.033137748073677e-07
	3.036942286811554e-05
	3.024879588144047e-06
	3.035981864823892e-01

 42	4.200000000000002e-01
	-2.573085113872574e-15
	-3.017202915397077e-18
	-9.261758122553486e-15
	5.424152928547148e-07
	3.359741420053585e-05
	3.344447315802175e-06
	3.035982220663287e-01

 43	4.300000000000002e-01
	-2.550331787072978e-15
	-3.109798484855142e-18
	-9.346286439159816e-15
	5.841451378964643e-07
	3.715443566723999e-05
	3.697916004529916e-06
	3.035982614257768e-01

 44	4.400000000000002e-01
	-2.528223363888290e-15
	-3.205213973955706e-18
	-9.429598902313938e-15
	6.286425149035665e-07
	4.106918318426928e-05
	4.088717972340657e-06
	3.035983049430600e-01

 45	4.500000000000002e-01
	-2.506755372776800e-15
	-3.303537584946662e-18
	-9.511680333349408e-15
	6.760510815991361e-07
	4.537185880142004e-05
	4.520580052916677e-06
	3.035983530333289e-01

 46	4.600000000000002e-01
	-2.485922850207935e-15
	-3.404860539113167e-18
	-9.592517158488225e-15
	7.265189106641070e-07
	5.009408152090953e-05
	4.997538229636746e-06
	3.035984061461675e-01

 47	4.700000000000003e-01
	-2.465720361910968e-15
	-3.509277194403137e-18
	-9.672097384883116e-15
	7.801984444716134e-07
	5.526876668840178e-05
	5.523951221713271e-06
	3.035984647671217e-01

 48	4.800000000000003e-01
	-2.446142024662291e-15
	-3.616885168146855e-18
	-9.750410573515520e-15
	8.372464433304476e-07
	6.092997168927124e-05
	6.104512696426656e-06
	3.035985294190579e-01

 49	4.900000000000003e-01
	-2.427181528509905e-15
	-3.727785465107616e-18
	-9.827447809168245e-15
	8.978239283920685e-07
	6.711270611494310e-05
	6.744261760843315e-06
	3.035986006633284e-01

 50	5.000000000000002e-01
	-2.408832159336317e-15
	-3.842082611111970e-18
	-9.903201667695307e-15
	9.620961205506447e-07
	7.385270511201937e-05
	7.448591370704958e-06
	3.035986791007092e-01

 51	5.100000000000002e-01
	-2.391086821664245e-15
	-3.959884792519926e-18
	-9.977666180813466e-15
	1.030232376838870e-06
	8.118616529083998e-05
	8.223254284545059e-06
	3.035987653720641e-01

 52	5.200000000000002e-01
	-2.373938061612909e-15
	-4.081304001809402e-18
	-1.005083679864039e-14
	1.102406125989925e-06
	8.914944334577102e-05
	9.074366188664616e-06
	3.035988601586874e-01

 53	5.300000000000002e-01
	-2.357378089916658e-15
	-4.206456189561080e-18
	-1.012271035020346e-14
	1.178794804994365e-06
	9.777871841752569e-05
	1.000840562446091e-05
	3.035989641822994e-01

 54	5.400000000000003e-01
	-2.341398804921679e-15
	-4.335461423145466e-18
	-1.019328500214128e-14
	1.259579798625653e-06
	1.071096201933727e-04
	1.103221036470485e-05
	3.035990782046316e-01

 55	5.500000000000003e-01
	-2.325991815481094e-15
	-4.468444052427361e-18
	-1.026256021581666e-14
	1.344946384034435e-06
	1.171768257736769e-04
	1.215296991047623e-05
	3.035992030266050e-01

 56	5.600000000000003e-01
	-2.311148463673140e-15
	-4.605532882820933e-18
	-1.033053670305552e-14
	1.435083682616086e-06
	1.280136294069119e-04
	1.337821381615294e-05
	3.035993394870051e-01

 57	5.700000000000003e-01
	-2.296859847272170e-15
	-4.746861356041392e-18
	-1.039721638072082e-14
	1.530184621431427e-06
	1.396514902786080e-04
	1.471579559633705e-05
	3.035994884607071e-01

 58	5.800000000000003e-01
	-2.283116841906711e-15
	-4.892567738921671e-18
	-1.046260232432494e-14
	1.630445906505618e-06
	1.521195645972010e-04
	1.617387202585191e-05
	3.035996508563459e-01

 59	5.900000000000003e-01
	-2.269910122844142e-15
	-5.042795320675593e-18
	-1.052669872087623e-14
	1.736068010337159e-06
	1.654442292118275e-04
	1.776087771145359e-05
	3.035998276134961e-01

 60	6.000000000000003e-01
	-2.257230186346267e-15
	-5.197692619012771e-18
	-1.058951082114881e-14
	1.847255175918008e-06
	1.796486048828555e-04
	1.948549489085862e-05
	3.036000196992986e-01

 61	6.100000000000003e-01
	-2.245067370545107e-15
	-5.357413595529049e-18
	-1.065104489155609e-14
	1.964215439491491e-06
	1.947520880633120e-04
	2.135661849977839e-05
	3.036002281045641e-01

 62	6.200000000000003e-01
	-2.233411875793189e-15
	-5.522117880818047e-18
	-1.071130816580002e-14
	2.087160674157840e-06
	2.107699005984463e-04
	2.338331663920958e-05
	3.036004538393612e-01

 63	6.300000000000003e-01
	-2.222253784447543e-15
	-5.691971009772701e-18
	-1.077030879645906e-14
	2.216306656276673e-06
	2.277126670747005e-04
	2.557478667116683e-05
	3.036006979281398e-01

 64	6.400000000000003e-01
	-2.211583080051101e-15
	-5.867144667571127e-18
	-1.082805580666926e-14
	2.351873156415027e-06
	2.455860296176591e-04
	2.794030726896904e-05
	3.036009614043628e-01

 65	6.500000000000004e-01
	-2.201389665880337e-15
	-6.047816946864581e-18
	-1.088455904204220e-14
	2.494084056349783e-06
	2.643903097276764e-04
	3.048918684537762e-05
	3.036012453047833e-01

 66	6.600000000000004e-01
	-2.191663382831872e-15
	-6.234172616716098e-18
	-1.093982912295566e-14
	2.643167493363777e-06
	2.841202262386472e-04
	3.323070887552679e-05
	3.036015506633362e-01

 67	6.700000000000004e-01
	-2.182394026625677e-15
	-6.426403403863444e-18
	-1.099387739734183e-14
	2.799356032778876e-06
	3.047646776866688e-04
	3.617407471865872e-05
	3.036018785047810e-01

 68	6.800000000000004e-01
	-2.173571364306269e-15
	-6.624708286914824e-18
	-1.104671589408935e-14
	2.962886869359771e-06
	3.263065962909247e-04
	3.932834462033120e-05
	3.036022298381243e-01

 69	6.900000000000004e-01
	-2.165185150027400e-15
	-6.829293804115605e-18
	-1.109835727716562e-14
	3.134002057906670e-06
	3.487228794002807e-04
	4.270237764218503e-05
	3.036026056499300e-01

 70	7.000000000000004e-01
	-2.157225140109565e-15
	-7.040374375359304e-18
	-1.114881480055647e-14
	3.312948773047299e-06
	3.719844026797746e-04
	4.630477131709479e-05
	3.036030068976048e-01

 71	7.100000000000004e-01
	-2.149681107363085e-15
	-7.258172639154182e-18
	-1.119810226411126e-14
	3.499979597949829e-06
	3.960561175461544e-04
	5.014380186147880e-05
	3.036034345027395e-01

 72	7.200000000000004e-01
	-2.142542854672892e-15
	-7.482919805293917e-18
	-1.124623397037277e-14
	3.695352841420855e-06
	4.208972334651571e-04
	5.422736579211395e-05
	3.036038893446078e-01

 73	7.300000000000004e-01
	-2.135800227844292e-15
	-7.714856024020592e-18
	-1.129322468246197e-14
	3.899332882638747e-06
	4.464614837570499e-04
	5.856292379099708e-05
	3.036043722539259e-01

 74	7.400000000000004e-01
	-2.129443127711857e-15
	-7.954230772515416e-18
	-1.133908958308018e-14
	4.112190542612772e-06
	4.726974715872197e-04
	6.315744763824062e-05
	3.036048840069406e-01

 75	7.500000000000004e-01
	-2.123461521516198e-15
	-8.201303259593225e-18
	-1.138384423468243e-14
	4.334203481361553e-06
	4.995490909131125e-04
	6.801737099000361e-05
	3.036054253199525e-01

 76	7.600000000000005e-01
	-2.117845453555956e-15
	-8.456342849528170e-18
	-1.142750454086840e-14
	4.565656619777155e-06
	5.269560153836696e-04
	7.314854471700539e-05
	3.036059968443455e-01

 77	7.700000000000005e-01
	-2.112585055124526e-15
	-8.719629505986724e-18
	-1.147008670902967e-14
	4.806842585187985e-06
	5.548542466040441e-04
	7.855619744089439e-05
	3.036065991621991e-01

 78	7.800000000000005e-01
	-2.107670553742962e-15
	-8.991454257098854e-18
	-1.151160721428537e-14
	5.058062179755883e-06
	5.831767118404312e-04
	8.424490181283208e-05
	3.036072327825355e-01

 79	7.900000000000005e-01
	-2.103092281702537e-15
	-9.272119682752619e-18
	-1.155208276473097e-14
	5.319624871037607e-06
	6.118539001907387e-04
	9.021854697377795e-05
	3.036078981382555e-01

 80	8.000000000000005e-01
	-2.098840683931860e-15
	-9.561940425258897e-18
	-1.159153026801927e-14
	5.591849304305536e-06
	6.408145255181142e-04
	9.648031752222477e-05
	3.036085955837990e-01

 81	8.100000000000005e-01
	-2.094906325205007e-15
	-9.861243724591531e-18
	-1.162996679928607e-14
	5.875063836546921e-06
	6.699862040538857e-04
	1.030326791957902e-04
	3.036093253935514e-01

 82	8.200000000000005e-01
	-2.091279896708365e-15
	-1.017036997947770e-17
	-1.166740957042774e-14
	6.169607092437710e-06
	6.992961345286425e-04
	1.098773713515897e-04
	3.036100877610090e-01

 83	8.300000000000005e-01
	-2.087952221984817e-15
	-1.048967333567740e-17
	-1.170387590073254e-14
	6.475828543002854e-06
	7.286717689755115e-04
	1.170154062100564e-04
	3.036108827986915e-01

 84	8.400000000000005e-01
	-2.084914262275171e-15
	-1.081952230286828e-17
	-1.173938318886234e-14
	6.794089108117155e-06
	7.580414629461570e-04
	1.244470747110636e-04
	3.036117105388070e-01

 85	8.500000000000005e-01
	-2.082157121276813e-15
	-1.116030040162365e-17
	-1.177394888617762e-14
	7.124761784457215e-06
	7.873350947548166e-04
	1.321719587228545e-04
	3.036125709345934e-01

 86	8.600000000000005e-01
	-2.079672049341020e-15
	-1.151240684205269e-17
	-1.180759047139316e-14
	7.468232300968746e-06
	8.164846444763257e-04
	1.401889492458479e-04
	3.036134638623588e-01

 87	8.700000000000006e-01
	-2.077450447130043e-15
	-1.187625723575787e-17
	-1.184032542654923e-14
	7.824899804357212e-06
	8.454247247226499e-04
	1.484962701671493e-04
	3.036143891241193e-01

 88	8.800000000000006e-01
	-2.075483868755832e-15
	-1.225228434284975e-17
	-1.187217121427877e-14
	8.195177577527107e-06
	8.740930566557830e-04
	1.570915070490156e-04
	3.036153464508058e-01

 89	8.900000000000006e-01
	-2.073764024422353e-15
	-1.264093885585327e-17
	-1.190314525634824e-14
	8.579493794279470e-06
	9.024308862093881e-04
	1.659716403767562e-04
	3.036163355059676e-01

 90	9.000000000000006e-01
	-2.072282782593421e-15
	-1.304269022243944e-17
	-1.193326491344651e-14
	8.978292313921816e-06
	9.303833370343755e-04
	1.751330826491413e-04
	3.036173558898971e-01

 91	9.100000000000006e-01
	-2.071032171708136e-15
	-1.345802750901437e-17
	-1.196254746619434e-14
	9.392033519741986e-06
	9.578996982048559e-04
	1.845717186673010e-04
	3.036184071441192e-01

 92	9.200000000000006e-01
	-2.070004381465604e-15
	-1.388746030731028e-17
	-1.199101009734388e-14
	9.821195205549492e-06
	9.849336461764196e-04
	1.942829483659677e-04
	3.036194887561605e-01

 93	9.300000000000006e-01
	-2.069191763700731e-15
	-1.433151968623186e-17
	-1.201866987513642e-14
	1.026627351469134e-05
	1.011443401839941e-03
	2.042617315328055e-04
	3.036206001645250e-01

 94	9.400000000000006e-01
	-2.068586832872203e-15
	-1.479075919133569e-17
	-1.204554373778444e-14
	1.072778393610913e-05
	1.037391824730653e-03
	2.145026337763233e-04
	3.036217407638178e-01

 95	9.500000000000006e-01
	-2.068182266183694e-15
	-1.526575589443801e-17
	-1.207164847904283e-14
	1.120626236212522e-05
	1.062746447511182e-03
	2.249998731290170e-04
	3.036229099099298e-01

 96	9.600000000000006e-01
	-2.067970903358673e-15
	-1.575711149598777e-17
	-1.209700073483308e-14
	1.170226621273268e-05
	1.087479454733368e-03
	2.357473667082125e-04
	3.036241069252380e-01

 97	9.700000000000006e-01
	-2.067945746088865e-15
	-1.626545348296717e-17
	-1.212161697088283e-14
	1.221637563122702e-05
	1.111567610589966e-03
	2.467387769009077e-04
	3.036253311037507e-01

 98	9.800000000000006e-01
	-2.068099957175546e-15
	-1.679143634523921e-17
	-1.214551347134354e-14
	1.274919475606415e-05
	1.134992140892948e-03
	2.579675565888343e-04
	3.036265817161352e-01

 99	9.900000000000007e-01
	-2.068426859382698e-15
	-1.733574285340248e-17
	-1.216870632834708e-14
	1.330135307386767e-05
	1.157738574865801e-03
	2.694269929842505e-04
	3.036278580146110e-01

 100	1.000000000000001e+00
	-2.068919934019921e-15
	-1.789908540137924e-17
	-1.219121143246326e-14
	1.387350685855194e-05
	1.179796552523750e-03
	2.811102497039592e-04
	3.036291592376307e-01

 101	1.010000000000001e+00
	-2.069572819272710e-15
	-1.848220741712496e-17
	-1.221304446401912e-14
	1.446634070157847e-05
	1.201159603452478e-03
	2.930104067670526e-04
	3.036304846143346e-01

 102	1.020000000000001e+00
	-2.070379308296736e-15
	-1.908588484502385e-17
	-1.223422088524138e-14
	1.508056913843691e-05
	1.221824902700474e-03
	3.051204982596329e-04
	3.036318333687502e-01

 103	1.030000000000001e+00
	-2.071333347092141e-15
	-1.971092770371411e-17
	-1.225475593318370e-14
	1.571693837654080e-05
	1.241793009291655e-03
	3.174335474659158e-04
	3.036332047236975e-01

 104	1.040000000000001e+00
	-2.072429032173252e-15
	-2.035818172327595e-17
	-1.227466461340034e-14
	1.637622812986028e-05
	1.261067592563422e-03
	3.299425993187120e-04
	3.036345979044159e-01

 105	1.050000000000001e+00
	-2.073660608048000e-15
	-2.102853006591616e-17
	-1.229396169432869e-14
	1.705925356578790e-05
	1.279655151161189e-03
	3.426407500725096e-04
	3.036360121418573e-01

 106	1.060000000000001e+00
	-2.075022464520975e-15
	-2.172289513448177e-17
	-1.231266170234358e-14
	1.776686736994466e-05
	1.297564729092387e-03
	3.555211741484964e-04
	3.036374466756840e-01

 107	1.070000000000001e+00
	-2.076509133833097e-15
	-2.244224047335686e-17
	-1.233077891744670e-14
	1.849996193489684e-05
	1.314807632779715e-03
	3.685771481425866e-04
	3.036389007569374e-01

 108	1.080000000000001e+00
	-2.078115287650017e-15
	-2.318757276650838e-17
	-1.234832736955551e-14
	1.925947167905862e-05
	1.331397152570751e-03
	3.818020720244339e-04
	3.036403736504076e-01

 109	1.090000000000001e+00
	-2.079835733910796e-15
	-2.395994393768722e-17
	-1.236532083535675e-14
	2.004637550241436e-05
	1.347348291673680e-03
	3.951894875875299e-04
	3.036418646366828e-01

 110	1.100000000000001e+00
	-2.081665413547570e-15
	-2.476045335801615e-17
	-1.238177283569032e-14
	2.086169938609489e-05
	1.362677505008804e-03
	4.087330942376907e-04
	3.036433730139043e-01

 111	1.110000000000001e+00
	-2.083599397086187e-15
	-2.559025016644873e-17
	-1.239769663343031e-14
	2.170651914329109e-05
	1.377402450002870e-03
	4.224267622297535e-04
	3.036448980992527e-01

 112	1.120000000000001e+00
	-2.085632881136970e-15
	-2.645053570883258e-17
	-1.241310523183100e-14
	2.258196332948448e-05
	1.391541750916310e-03
	4.362645434803675e-04
	3.036464392301433e-01

 113	1.130000000000001e+00
	-2.087761184784170e-15
	-2.734256610156778e-17
	-1.242801137330653e-14
	2.348921632050539e-05
	1.405114777887588e-03
	4.502406800985266e-04
	3.036479957651744e-01

 114	1.140000000000001e+00
	-2.089979745881973e-15
	-2.826765492611047e-17
	-1.244242753861369e-14
	2.442952156749898e-05
	1.418141441508680e-03
	4.643496107853963e-04
	3.036495670848464e-01

 115	1.150000000000001e+00
	-2.092284117264105e-15
	-2.922717606085178e-17
	-1.245636594640861e-14
	2.540418503848693e-05
	1.430642003413810e-03
	4.785859752614708e-04
	3.036511525920562e-01

 116	1.160000000000001e+00
	-2.094669962873441e-15
	-3.022256665716406e-17
	-1.246983855314901e-14
	2.641457885684033e-05
	1.442636903070623e-03
	4.929446168823537e-04
	3.036527517123804e-01

 117	1.170000000000001e+00
	-2.097133053817543e-15
	-3.125533026668759e-17
	-1.248285705331445e-14
	2.746214514762968e-05
	1.454146600709179e-03
	5.074205836049948e-04
	3.036543638941875e-01

 118	1.180000000000001e+00
	-2.099669264355211e-15
	-3.232704012720337e-17
	-1.249543287991828e-14
	2.854840010348587e-05
	1.465191436108791e-03
	5.220091274644878e-04
	3.036559886085857e-01

 119	1.190000000000001e+00
	-2.102274567818501e-15
	-3.343934261472810e-17
	-1.250757720528580e-14
	2.967493828228175e-05
	1.475791502783509e-03
	5.367057027178121e-04
	3.036576253491982e-01

 120	1.200000000000001e+00
	-2.104945032474432e-15
	-3.459396086971549e-17
	-1.251930094207410e-14
	3.084343714960451e-05
	1.485966536961705e-03
	5.515059628054268e-04
	3.036592736318478e-01

 121	1.210000000000001e+00
	-2.107676817329450e-15
	-3.579269860555165e-17
	-1.253061474451017e-14
	3.205566187966248e-05
	1.495735820641860e-03
	5.664057562751600e-04
	3.036609329940860e-01

 122	1.220000000000001e+00
	-2.110466167879688e-15
	-3.703744410776342e-17
	-1.254152900982442e-14
	3.331347042889075e-05
	1.505118097920803e-03
	5.814011218050272e-04
	3.036626029946420e-01

 123	1.230000000000001e+00
	-2.113309411809368e-15
	-3.833017443263074e-17
	-1.255205387985797e-14
	3.461881889712504e-05
	1.514131503730811e-03
	5.964882824533558e-04
	3.036642832127860e-01

 124	1.240000000000001e+00
	-2.116202954639058e-15
	-3.967295981412379e-17
	-1.256219924282293e-14
	3.597376719175691e-05
	1.522793504084103e-03
	6.116636392557218e-04
	3.036659732476141e-01

 125	1.250000000000001e+00
	-2.119143275325230e-15
	-4.106796828829976e-17
	-1.257197473519544e-14
	3.738048501075433e-05
	1.531120846904548e-03
	6.269237642790780e-04
	3.036676727172740e-01

 126	1.260000000000001e+00
	-2.122126921812014e-15
	-4.251747054450254e-17
	-1.258138974372244e-14
	3.884125816081199e-05
	1.539129522524207e-03
	6.422653932342206e-04
	3.036693812581404e-01

 127	1.270000000000001e+00
	-2.125150506535730e-15
	-4.402384501285584e-17
	-1.259045340752363e-14
	4.035849522715897e-05
	1.546834732933713e-03
	6.576854177385895e-04
	3.036710985239578e-01

 128	1.280000000000001e+00
	-2.128210701882236e-15
	-4.558958319768987e-17
	-1.259917462027101e-14
	4.193473461166557e-05
	1.554250868898125e-03
	6.731808773123896e-04
	3.036728241849428e-01

 129	1.290000000000001e+00
	-2.131304235597053e-15
	-4.721729526661036e-17
	-1.260756203242906e-14
	4.357265195581922e-05
	1.561391494081367e-03
	6.887489511822585e-04
	3.036745579268783e-01

 130	1.300000000000001e+00
	-2.134427886147543e-15
	-4.890971590497497e-17
	-1.261562405353942e-14
	4.527506796485496e-05
	1.568269335360992e-03
	7.043869499584041e-04
	3.036762994501774e-01

 131	1.310000000000001e+00
	-2.137578478036665e-15
	-5.066971044549824e-17
	-1.262336885453440e-14
	4.704495664875773e-05
	1.574896278558542e-03
	7.200923072430784e-04
	3.036780484689606e-01

 132	1.320000000000001e+00
	-2.140752877066961e-15
	-5.250028128263730e-17
	-1.263080437006470e-14
	4.888545399497568e-05
	1.581283368858321e-03
	7.358625712208512e-04
	3.036798047101050e-01

 133	1.330000000000001e+00
	-2.143947985553928e-15
	-5.440457458120483e-17
	-1.263793830082680e-14
	5.079986708639695e-05
	1.587440815236879e-03
	7.516953962740113e-04
	3.036815679123206e-01

 134	1.340000000000001e+00
	-2.147160737487259e-15
	-5.638588728841593e-17
	-1.264477811587669e-14
	5.279168367641626e-05
	1.593377998276742e-03
	7.675885346600112e-04
	3.036833378252223e-01

 135	1.350000000000001e+00
	-2.150388093638588e-15
	-5.844767445817808e-17
	-1.265133105491677e-14
	5.486458223062496e-05
	1.599103480789160e-03
	7.835398282818254e-04
	3.036851142084102e-01

 136	1.360000000000001e+00
	-2.153627036614357e-15
	-6.059355689593488e-17
	-1.265760413054371e-14
	5.702244244172343e-05
	1.604625020721751e-03
	7.995472005765846e-04
	3.036868968305652e-01

 137	1.370000000000001e+00
	-2.156874565852471e-15
	-6.282732913172595e-17
	-1.266360413044499e-14
	5.926935622056444e-05
	1.609949585877056e-03
	8.156086485428674e-04
	3.036886854685670e-01

 138	1.380000000000001e+00
	-2.160127692561363e-15
	-6.515296772832269e-17
	-1.266933761953334e-14
	6.160963916166496e-05
	1.615083370017106e-03
	8.317222349226181e-04
	3.036904799066159e-01

 139	1.390000000000001e+00
	-2.163383434600460e-15
	-6.757463993029651e-17
	-1.267481094200805e-14
	6.404784247589913e-05
	1.620031809976186e-03
	8.478860805495118e-04
	3.036922799353840e-01

 140	1.400000000000001e+00
	-2.166638811301263e-15
	-7.009671265868833e-17
	-1.268003022333293e-14
	6.658876537629563e-05
	1.624799603449907e-03
	8.640983568721693e-04
	3.036940853511850e-01

 141	1.410000000000001e+00
	-2.169890838228494e-15
	-7.272376185451073e-17
	-1.268500137212155e-14
	6.923746789467477e-05
	1.629390727172408e-03
	8.803572786574981e-04
	3.036958959551579e-01

 142	1.420000000000001e+00
	-2.173136521881366e-15
	-7.546058217261803e-17
	-1.268973008192047e-14
	7.199928409709250e-05
	1.633808455235611e-03
	8.966610968767021e-04
	3.036977115524774e-01

 143	1.430000000000001e+00
	-2.176372854335616e-15
	-7.831219702550925e-17
	-1.269422183288210e-14
	7.487983565449547e-05
	1.638055377344981e-03
	9.130080917743625e-04
	3.036995319515799e-01

 144	1.440000000000001e+00
	-2.179596807827362e-15
	-8.128386897430635e-17
	-1.269848189331936e-14
	7.788504571136323e-05
	1.642133416845073e-03
	9.293965661190419e-04
	3.037013569634122e-01

 145	1.450000000000001e+00
	-2.182805329281139e-15
	-8.438111046149655e-17
	-1.270251532113486e-14
	8.102115297916561e-05
	1.646043848385733e-03
	9.458248386324308e-04
	3.037031864006980e-01

 146	1.460000000000001e+00
	-2.185995334784927e-15
	-8.760969487696358e-17
	-1.270632696511808e-14
	8.429472596291723e-05
	1.649787315136376e-03
	9.622912375929279e-04
	3.037050200772338e-01

 147	1.470000000000001e+00
	-2.189163704016415e-15
	-9.097566794534742e-17
	-1.270992146610477e-14
	8.771267720766786e-05
	1.653363845491504e-03
	9.787940946088809e-04
	3.037068578071822e-01

 148	1.480000000000001e+00
	-2.192307274626007e-15
	-9.448535941877907e-17
	-1.271330325799341e-14
	9.128227742706054e-05
	1.656772869245625e-03
	9.953317385561597e-04
	3.037086994044074e-01

 149	1.490000000000001e+00
	-2.195422836583475e-15
	-9.814539505456734e-17
	-1.271647656861472e-14
	9.501116934793451e-05
	1.660013233250913e-03
	1.011902489674863e-03
	3.037105446818195e-01

 150	1.500000000000001e+00
	-2.198507126496669e-15
	-1.019627088523706e-16
	-1.271944542045079e-14
	9.890738107291124e-05
	1.663083216605998e-03
	1.028504653820239e-03
	3.037123934507189e-01

 151	1.510000000000001e+00
	-2.201556821913163e-15
	-1.059445555196663e-16
	-1.272221363120157e-14
	1.029793387267282e-04
	1.665980545459384e-03
	1.045136516863366e-03
	3.037142455201928e-01

 152	1.520000000000001e+00
	-2.204568535616980e-15
	-1.100985231280984e-16
	-1.272478481419764e-14
	1.072358781117096e-04
	1.668702407547657e-03
	1.061796339238532e-03
	3.037161006964922e-01

 153	1.530000000000001e+00
	-2.207538809935671e-15
	-1.144325459161797e-16
	-1.272716237865934e-14