Title: ** sch_path: /home/andylithia/openmpw/project-yatsuhashi-chip1/xschem/gmid_test/nmos_test.sch
Date: Sun Jul 17 22:51:45  2022
Plotname: DC transfer characteristic
Flags: real
No. Variables: 8
No. Points: 181
Variables:
	0	v(v-sweep)	voltage
	1	@m.xm1.msky130_fd_pr__nfet_01v8[cgb]	capacitance
	2	@m.xm1.msky130_fd_pr__nfet_01v8[cgd]	capacitance
	3	@m.xm1.msky130_fd_pr__nfet_01v8[cgs]	capacitance
	4	@m.xm1.msky130_fd_pr__nfet_01v8[gds]	admittance
	5	@m.xm1.msky130_fd_pr__nfet_01v8[gm]	admittance
	6	i(@m.xm1.msky130_fd_pr__nfet_01v8[id])	current
	7	v(@m.xm1.msky130_fd_pr__nfet_01v8[vth])	voltage
Values:
 0	0.000000000000000e+00
	-1.603598241466330e-15
	-2.669499498519845e-25
	-2.257819317634685e-18
	3.622545308169941e-25
	1.196421583934968e-22
	1.407797289298483e-24
	6.442810627009916e-01

 1	1.000000000000000e-02
	-1.596708776301372e-15
	-3.451144920550365e-25
	-2.253406112300745e-18
	8.473413038500318e-25
	2.798724431697517e-22
	3.293087612244931e-24
	6.442810627009916e-01

 2	2.000000000000000e-02
	-1.589906196975262e-15
	-4.461696099305385e-25
	-2.250813957292765e-18
	1.982174650939431e-24
	6.547190265004375e-22
	7.703808748578994e-24
	6.442810627009916e-01

 3	3.000000000000000e-02
	-1.583188636352134e-15
	-5.768185419444353e-25
	-2.250530803588436e-18
	4.636701906322577e-24
	1.531583767415570e-21
	1.802151912031646e-23
	6.442810627009916e-01

 4	4.000000000000000e-02
	-1.576554251441830e-15
	-7.457268738400576e-25
	-2.253186267111187e-18
	1.084638007366512e-23
	3.582856730888569e-21
	4.215855337273975e-23
	6.442810627009916e-01

 5	5.000000000000000e-02
	-1.570001214139084e-15
	-9.640965396643852e-25
	-2.259592241697392e-18
	2.537205220432587e-23
	8.381345412478470e-21
	9.862230201947285e-23
	6.442810627009916e-01

 6	6.000000000000000e-02
	-1.563527699760055e-15
	-1.246407399044315e-24
	-2.270795008556962e-18
	5.934926897622909e-23
	1.960602619290516e-20
	2.307031701224339e-22
	6.442810627009916e-01

 7	7.000000000000001e-02
	-1.557131872717283e-15
	-1.611375088558420e-24
	-2.288141999873253e-18
	1.388275730793121e-22
	4.586287060030102e-20
	5.396753446833978e-22
	6.442810627009916e-01

 8	8.000000000000000e-02
	-1.550811868496035e-15
	-2.083187839671133e-24
	-2.313367180023637e-18
	3.247331099333977e-22
	1.072806315301090e-19
	1.262414792046921e-21
	6.442810627009916e-01

 9	9.000000000000000e-02
	-1.544565770876038e-15
	-2.693102859145289e-24
	-2.348699979780673e-18
	7.595687504149603e-22
	2.509376777273758e-19
	2.952985076994028e-21
	6.442810627009916e-01

 10	9.999999999999999e-02
	-1.538391583078487e-15
	-3.481505695363739e-24
	-2.397003864408642e-18
	1.776611995536463e-21
	5.869310652036617e-19
	6.907253878116690e-21
	6.442810627009916e-01

 11	1.100000000000000e-01
	-1.532287191208101e-15
	-4.500564984726629e-24
	-2.461951923108671e-18
	4.155215867074056e-21
	1.372688235177644e-18
	1.615567433927437e-20
	6.442810627009916e-01

 12	1.200000000000000e-01
	-1.526250318009793e-15
	-5.817651515734289e-24
	-2.548248284673170e-18
	9.717580272805856e-21
	3.209974676183571e-18
	3.778403325653437e-20
	6.442810627009916e-01

 13	1.300000000000000e-01
	-1.520278464587043e-15
	-7.519736265331397e-24
	-2.661905579928117e-18
	2.272300793571912e-20
	7.504927756626580e-18
	8.835572306696296e-20
	6.442810627009916e-01

 14	1.400000000000000e-01
	-1.514368837372185e-15
	-9.719038628656000e-24
	-2.810589876295993e-18
	5.312356976427828e-20
	1.754131834695944e-17
	2.065735984708767e-19
	6.442810627009916e-01

 15	1.500000000000000e-01
	-1.508518257364128e-15
	-1.256026502037478e-23
	-3.004045156472642e-18
	1.241587093150988e-19
	4.098083394248153e-17
	4.828180161136987e-19
	6.442810627009916e-01

 16	1.600000000000000e-01
	-1.502723048562675e-15
	-1.622986041218063e-23
	-3.254608981452344e-18
	2.900456402063920e-19
	9.567500027420638e-17
	1.127953903173096e-18
	6.442810627009916e-01

 17	1.700000000000000e-01
	-1.496978902779939e-15
	-2.096779114320702e-23
	-3.577828773896714e-18
	6.770943354696572e-19
	2.231297395653999e-16
	2.633255146933276e-18
	6.442810627009916e-01

 18	1.800000000000000e-01
	-1.491280718777223e-15
	-2.708248457312566e-23
	-3.993183413867660e-18
	1.578940128728591e-18
	5.195393856242305e-16
	6.140845840336826e-18
	6.442810627009916e-01

 19	1.900000000000000e-01
	-1.485622415112306e-15
	-3.496966518919380e-23
	-4.524907031087102e-18
	3.675984388419630e-18
	1.206757938981101e-15
	1.429733115127819e-17
	6.442810627009916e-01

 20	2.000000000000000e-01
	-1.479996718175577e-15
	-4.513593984931104e-23
	-5.202901430232861e-18
	8.537067575767904e-18
	2.792674416370027e-15
	3.320540792199415e-17
	6.442810627009916e-01

 21	2.100000000000000e-01
	-1.474394929205342e-15
	-5.822808735136358e-23
	-6.063713146221902e-18
	1.975274558615838e-17
	6.427081103802098e-15
	7.683273862455943e-17
	6.442810627009916e-01

 22	2.200000000000001e-01
	-1.468806675328929e-15
	-7.506909334206898e-23
	-7.151547434429729e-18
	4.544958544742219e-17
	1.466976905000107e-14
	1.767939501255380e-16
	6.442810627009916e-01

 23	2.300000000000001e-01
	-1.463219647293570e-15
	-9.670205066536004e-23
	-8.519307335223636e-18
	1.037197811208896e-16
	3.308014953996728e-14
	4.034757630285243e-16
	6.442810627009916e-01

 24	2.400000000000001e-01
	-1.457619316403491e-15
	-1.244431663741702e-22
	-1.022970058449409e-17
	2.338865079417211e-16
	7.330435456409905e-14
	9.098691910499935e-16
	6.442810627009916e-01

 25	2.500000000000001e-01
	-1.451988600210402e-15
	-1.599453983300815e-22
	-1.235657241609349e-17
	5.185533395726826e-16
	1.585214347593794e-13
	2.017364514334485e-15
	6.442810627009916e-01

 26	2.600000000000001e-01
	-1.446307406911507e-15
	-2.052748996453296e-22
	-1.498681130135372e-17
	1.123330546229273e-15
	3.317543320471830e-13
	4.370332245936128e-15
	6.442810627009916e-01

 27	2.700000000000001e-01
	-1.440551933517333e-15
	-2.630037718446478e-22
	-1.822342344924195e-17
	2.360777013751784e-15
	6.660511298888906e-13
	9.184935474278092e-15
	6.442810627009916e-01

 28	2.800000000000001e-01
	-1.434693533043403e-15
	-3.363248984028604e-22
	-2.219062329768013e-17
	4.779747778761547e-15
	1.273471550760129e-12
	1.859680296532026e-14
	6.442810627009927e-01

 29	2.900000000000001e-01
	-1.428696921032043e-15
	-4.291979340473783e-22
	-2.704194441445575e-17
	9.273553746263420e-15
	2.310861266146340e-12
	3.608190395865522e-14
	6.442810627009951e-01

 30	3.000000000000001e-01
	-1.422517484344950e-15
	-5.465395495338560e-22
	-3.297233761152678e-17
	1.720420438489779e-14
	3.988620045114879e-12
	6.694001614748947e-14
	6.442810627009973e-01

 31	3.100000000000001e-01
	-1.416097499889324e-15
	-6.944749986922899e-22
	-4.023494032560033e-17
	3.056987766583518e-14
	6.598649202699598e-12
	1.189464535496781e-13
	6.442810627010019e-01

 32	3.200000000000001e-01
	-1.409361167135146e-15
	-8.806709117042665e-22
	-4.916270022370192e-17
	5.228567495374471e-14
	1.057613455093778e-11
	2.034447219775326e-13
	6.442810627010099e-01

 33	3.300000000000001e-01
	-1.402208496040910e-15
	-1.114769866073656e-21
	-6.019438388095830e-17
	8.667146769332545e-14
	1.659896961050681e-11
	3.372451690921701e-13
	6.442810627010227e-01

 34	3.400000000000001e-01
	-1.394508267493297e-15
	-1.408944856232082e-21
	-7.390372939557832e-17
	1.402457944598026e-13
	2.572805254112520e-11
	5.457147552480030e-13
	6.442810627010421e-01

 35	3.500000000000001e-01
	-1.386090509134171e-15
	-1.778585380300468e-21
	-9.102956083246174e-17
	2.229508262472329e-13
	3.960744732634126e-11
	8.675445626289702e-13
	6.442810627010723e-01

 36	3.600000000000002e-01
	-1.376739229603193e-15
	-2.243115239618394e-21
	-1.125034735560058e-16
	3.500087663123928e-13
	6.076401338386005e-11
	1.361975014488755e-12
	6.442810627011192e-01

 37	3.700000000000002e-01
	-1.366186551444543e-15
	-2.826923554943479e-21
	-1.394701376941332e-16
	5.447375940705181e-13
	9.306652092042573e-11
	2.119755311373834e-12
	6.442810627011907e-01

 38	3.800000000000002e-01
	-1.354109891451667e-15
	-3.560362964093904e-21
	-1.732933090597801e-16
	8.428404367296856e-13
	1.424312706325175e-10
	3.279839226879145e-12
	6.442810627012989e-01

 39	3.900000000000002e-01
	-1.340134457501919e-15
	-4.480730884653905e-21
	-2.155382986527333e-16
	1.298957145557097e-12
	2.179042203917191e-10
	5.054887535162393e-12
	6.442810627014657e-01

 40	4.000000000000002e-01
	-1.323844010930919e-15
	-5.633100882742507e-21
	-2.679191713256588e-16
	1.996681320342851e-12
	3.333176700052200e-10
	7.770262483103593e-12
	6.442810627017210e-01

 41	4.100000000000002e-01
	-1.304803368857968e-15
	-7.070814685717576e-21
	-3.321972430219343e-16
	3.063879605672914e-12
	5.098246519452116e-10
	1.192366834912756e-11
	6.442810627021111e-01

 42	4.200000000000002e-01
	-1.282595960295624e-15
	-8.855391319348155e-21
	-4.100187457289035e-16
	4.696119486794695e-12
	7.797750002337814e-10
	1.827637107686104e-11
	6.442810627027072e-01

 43	4.300000000000002e-01
	-1.256878007939802e-15
	-1.105558016438271e-20
	-5.026874544661652e-16
	7.192493871782748e-12
	1.192642740447576e-09
	2.799271159684257e-11
	6.442810627036203e-01

 44	4.400000000000002e-01
	-1.227446642425577e-15
	-1.374531505028766e-20
	-6.108861978978662e-16
	1.101039438764795e-11
	1.824089650211650e-09
	4.285346791902176e-11
	6.442810627050153e-01

 45	4.500000000000002e-01
	-1.194312344127139e-15
	-1.700045759087083e-20
	-7.343894105264158e-16
	1.684923913849425e-11
	2.789822695070966e-09
	6.558213257483788e-11
	6.442810627071496e-01

 46	4.600000000000002e-01
	-1.157758396845783e-15
	-2.089447045870635e-20
	-8.718389518332181e-16
	2.577842318485409e-11
	4.266777011694388e-09
	1.003438124993744e-10
	6.442810627104140e-01

 47	4.700000000000003e-01
	-1.118365757955027e-15
	-2.549349959097350e-20
	-1.020669765263649e-15
	3.943276200302037e-11
	6.525487760549616e-09
	1.535079683417082e-10
	6.442810627154062e-01

 48	4.800000000000003e-01
	-1.076985796434412e-15
	-3.085165591636783e-20
	-1.177251464950808e-15
	6.031082771051074e-11
	9.979539096606577e-09
	2.348142649684932e-10
	6.442810627230421e-01

 49	4.900000000000003e-01
	-1.034657387844215e-15
	-3.700741387687454e-20
	-1.337251901168813e-15
	9.222987500868240e-11
	1.526104798904140e-08
	3.591539787964719e-10
	6.442810627347190e-01

 50	5.000000000000002e-01
	-9.924840982680570e-16
	-4.398187233994619e-20
	-1.496150789534798e-15
	1.410184466433042e-10
	2.333577075137710e-08
	5.492905655821226e-10
	6.442810627525740e-01

 51	5.100000000000002e-01
	-9.515019239547589e-16
	-5.177917895948156e-20
	-1.649775574186971e-15
	2.155682710997192e-10
	3.567835067719515e-08
	8.400112281923232e-10
	6.442810627798746e-01

 52	5.200000000000002e-01
	-9.125701691467410e-16
	-6.038887670480174e-20
	-1.794728863143615e-15
	3.294258702522907e-10
	5.453847138117347e-08
	1.284454476008314e-09
	6.442810628216118e-01

 53	5.300000000000002e-01
	-8.763070840784207e-16
	-6.978951535531162e-20
	-1.928625812688804e-15
	5.031869501012112e-10
	8.334352300672593e-08
	1.963736116631615e-09
	6.442810628854014e-01

 54	5.400000000000003e-01
	-8.430748739237271e-16
	-7.995272028136454e-20
	-2.050130215672707e-15
	7.680665103681195e-10
	1.273041490738112e-07
	3.001550609737192e-09
	6.442810629828603e-01

 55	5.500000000000003e-01
	-8.130043731570273e-16
	-9.084701833002559e-20
	-2.158834436588441e-15
	1.171148597559367e-09
	1.943162547155081e-07
	4.586219391451690e-09
	6.442810631316728e-01

 56	5.600000000000003e-01
	-7.860429328204814e-16
	-1.024409742207317e-19
	-2.255052610124356e-15
	1.782939103517805e-09
	2.962840961285451e-07
	7.003748385385831e-09
	6.442810633586974e-01

 57	5.700000000000003e-01
	-7.620096003789301e-16
	-1.147054618190532e-19
	-2.339591566484942e-15
	2.707858013774571e-09
	4.510121074449838e-07
	1.068683439779662e-08
	6.442810637045673e-01

 58	5.800000000000003e-01
	-7.406462946465826e-16
	-1.276150998333510e-19
	-2.413543567889915e-15
	4.097993450648335e-09
	6.847931733174755e-07
	1.628619786284414e-08
	6.442810642303911e-01

 59	5.900000000000003e-01
	-7.216591067090460e-16
	-1.411489960028978e-19
	-2.478122466416055e-15
	6.169372874493769e-09
	1.035672028145946e-06
	2.477131587637697e-08
	6.442810650272098e-01

 60	6.000000000000003e-01
	-7.047481462672658e-16
	-1.552909818825638e-19
	-2.534547789810651e-15
	9.217555182707891e-09
	1.556906615433305e-06
	3.756549669365194e-08
	6.442810662286830e-01

 61	6.100000000000003e-01
	-6.896269369979092e-16
	-1.700295100885081e-19
	-2.583971362916116e-15
	1.362505467878510e-08
	2.319117699452905e-06
	5.671089516732277e-08
	6.442810680265864e-01

 62	6.200000000000003e-01
	-6.760334933771930e-16
	-1.853573532184203e-19
	-2.627437067757917e-15
	1.984797871707736e-08
	3.407895581655548e-06
	8.503581479408368e-08
	6.442810706865205e-01

 63	6.300000000000003e-01
	-6.637353972388406e-16
	-2.012712059771391e-19
	-2.665864025718799e-15
	2.836789025458190e-08
	4.912144262818193e-06
	1.262557748014755e-07
	6.442810745574028e-01

 64	6.400000000000003e-01
	-6.525308994054499e-16
	-2.177712584054411e-19
	-2.700044946973226e-15
	3.960545152951073e-08
	6.900297472191307e-06
	1.848972750118598e-07
	6.442810800643133e-01

 65	6.500000000000004e-01
	-6.422476134591438e-16
	-2.348607818386019e-19
	-2.730653394797314e-15
	5.381812270643606e-08
	9.390282846794980e-06
	2.659422346698227e-07
	6.442810876750972e-01

 66	6.600000000000004e-01
	-6.327399158555407e-16
	-2.525457504439277e-19
	-2.758255605604272e-15
	7.102899003928799e-08
	1.233074065592014e-05
	3.742108453071419e-07
	6.442810978424173e-01

 67	6.700000000000004e-01
	-6.238857913599157e-16
	-2.708345086945844e-19
	-2.783324033410628e-15
	9.102759967444228e-08
	1.561042088047119e-05
	5.136894172779853e-07
	6.442811109406278e-01

 68	6.800000000000004e-01
	-6.155835816815889e-16
	-2.897374874059778e-19
	-2.806250908822486e-15
	1.134412985194553e-07
	1.909299241591465e-05
	6.870919502721066e-07
	6.442811272246030e-01

 69	6.900000000000004e-01
	-6.077488988408066e-16
	-3.092669665685658e-19
	-2.827360871265441e-15
	1.378350870097780e-07
	2.265530337149634e-05
	8.958080475843070e-07
	6.442811468248462e-01

 70	7.000000000000004e-01
	-6.003118352506197e-16
	-3.294368809794914e-19
	-2.846922230490459e-15
	1.637946698291513e-07
	2.620947048507042e-05
	1.140162554345375e-06
	6.442811697718662e-01

 71	7.100000000000004e-01
	-5.932145215014847e-16
	-3.502626637450783e-19
	-2.865156717262916e-15
	1.909725704701170e-07
	2.970560544748965e-05
	1.419795455619489e-06
	6.442811960318590e-01

 72	7.200000000000004e-01
	-5.864090351551277e-16
	-3.717611225528553e-19
	-2.882247756674656e-15
	2.191013698054364e-07
	3.312324993967140e-05
	1.734004278125080e-06
	6.442812255388568e-01

 73	7.300000000000004e-01
	-5.798556379774375e-16
	-3.939503438677502e-19
	-2.898347387287315e-15
	2.479874409134630e-07
	3.646024481107948e-05
	2.081982259201047e-06
	6.442812582170983e-01

 74	7.400000000000004e-01
	-5.735213068382392e-16
	-4.168496206862679e-19
	-2.913581987626142e-15
	2.774969496243676e-07
	3.972367538708962e-05
	2.462953479389619e-06
	6.442812939937156e-01

 75	7.500000000000004e-01
	-5.673785195017452e-16
	-4.404794000490935e-19
	-2.928056979809310e-15
	3.075410602031503e-07
	4.292400436098001e-05
	2.876233410617706e-06
	6.442813328044253e-01

 76	7.600000000000005e-01
	-5.614042571657865e-16
	-4.648612470833707e-19
	-2.941860672001388e-15
	3.380633290456045e-07
	4.607185640586248e-05
	3.321244780710222e-06
	6.442813745950142e-01

 77	7.700000000000005e-01
	-5.555791886418971e-16
	-4.900178228770707e-19
	-2.955067385363382e-15
	3.690300182986842e-07
	4.917655011786089e-05
	3.797510748311423e-06
	6.442814193206985e-01

 78	7.800000000000005e-01
	-5.498870051426652e-16
	-5.159728739590600e-19
	-2.967739992241140e-15
	4.004230736413297e-07
	5.224562484156254e-05
	4.304638891356801e-06
	6.442814669446260e-01

 79	7.900000000000005e-01
	-5.443138789677420e-16
	-5.427512315657854e-19
	-2.979931973303870e-15
	4.322352093919480e-07
	5.528486502815696e-05
	4.842303268099379e-06
	6.442815174361829e-01

 80	8.000000000000005e-01
	-5.388480235249429e-16
	-5.703788192201005e-19
	-2.991689083674248e-15
	4.644665442422654e-07
	5.829853353696378e-05
	5.410227939616801e-06
	6.442815707694548e-01

 81	8.100000000000005e-01
	-5.334793358768866e-16
	-5.988826674366141e-19
	-3.003050702429382e-15
	4.971223320849959e-07
	6.128966258567410e-05
	6.008173199154088e-06
	6.442816269219278e-01

 82	8.200000000000005e-01
	-5.281991062857154e-16
	-6.282909346076214e-19
	-3.014050926378251e-15
	5.302114474355040e-07
	6.426033143345864e-05
	6.635924681405528e-06
	6.442816858734675e-01

 83	8.300000000000005e-01
	-5.229997820308605e-16
	-6.586329333213056e-19
	-3.024719457665561e-15
	5.637453830438392e-07
	6.721190319046312e-05
	7.293285055871142e-06
	6.442817476055417e-01

 84	8.400000000000005e-01
	-5.178747751281664e-16
	-6.899391615269237e-19
	-3.035082325319068e-15
	5.977375919784102e-07
	7.014521468482077e-05
	7.980067853357200e-06
	6.442818121006361e-01

 85	8.500000000000005e-01
	-5.128183055314945e-16
	-7.222413380949268e-19
	-3.045162473104516e-15
	6.322030601404427e-07
	7.306072292601737e-05
	8.696092969085053e-06
	6.442818793418341e-01

 86	8.600000000000005e-01
	-5.078252730038158e-16
	-7.555724424297808e-19
	-3.054980239729952e-15
	6.671580325102886e-07
	7.595861516020550e-05
	9.441183442044549e-06
	6.442819493125159e-01

 87	8.700000000000006e-01
	-5.028911521567173e-16
	-7.899667578834887e-19
	-3.064553752316039e-15
	7.026198419024153e-07
	7.883889001897573e-05
	1.021516318430294e-05
	6.442820219961434e-01

 88	8.800000000000006e-01
	-4.980119062235174e-16
	-8.254599187917484e-19
	-3.073899249912475e-15
	7.386068061788144e-07
	8.170141650761549e-05
	1.101785540582398e-05
	6.442820973761109e-01

 89	8.900000000000006e-01
	-4.931839159945145e-16
	-8.620889610163007e-19
	-3.083031350513328e-15
	7.751381713604759e-07
	8.454597640952101e-05
	1.184908154209781e-05
	6.442821754356480e-01

 90	9.000000000000006e-01
	-4.884039210397927e-16
	-8.998923759282743e-19
	-3.091963272354506e-15
	8.122340857285696e-07
	8.737229449592553e-05
	1.270866054163470e-05
	6.442822561577509e-01

 91	9.100000000000006e-01
	-4.836689709063909e-16
	-9.389101678096967e-19
	-3.100707018138336e-15
	8.499155950887032e-07
	9.018005988677153e-05
	1.359640840889886e-05
	6.442823395251375e-01

 92	9.200000000000006e-01
	-4.789763844280747e-16
	-9.791839146873334e-19
	-3.109273529119808e-15
	8.882046527412504e-07
	9.296894105673529e-05
	1.451213792729405e-05
	6.442824255202252e-01

 93	9.300000000000006e-01
	-4.743237156485694e-16
	-1.020756832643352e-18
	-3.117672814622070e-15
	9.271241399337424e-07
	9.573859631496033e-05
	1.545565850828076e-05
	6.442825141251144e-01

 94	9.400000000000006e-01
	-4.697087251502071e-16
	-1.063673843675047e-18
	-3.125914061456498e-15
	9.666978940512323e-07
	9.848868108221468e-05
	1.642677612834348e-05
	6.442826053215817e-01

 95	9.500000000000006e-01
	-4.651293558133991e-16
	-1.107981647198761e-18
	-3.134005726850217e-15
	1.006950742782361e-06
	1.012188529141070e-04
	1.742529332679187e-05
	6.442826990910834e-01

 96	9.600000000000006e-01
	-4.605837122197700e-16
	-1.153728795315380e-18
	-3.141955617786681e-15
	1.047908543151648e-06
	1.039287749446494e-04
	1.845100924542439e-05
	6.442827954147534e-01

 97	9.700000000000006e-01
	-4.560700430620495e-16
	-1.200965771973536e-18
	-3.149770959107535e-15
	1.089598224743732e-06
	1.066181182261832e-04
	1.950371969677444e-05
	6.442828942734166e-01

 98	9.800000000000006e-01
	-4.515867260444839e-16
	-1.249745076185032e-18
	-3.157458452278068e-15
	1.132047836737479e-06
	1.092865632998121e-04
	2.058321725167635e-05
	6.442829956475904e-01

 99	9.900000000000007e-01
	-4.471322548544692e-16
	-1.300121309464093e-18
	-3.165024326361278e-15
	1.175286598565347e-06
	1.119338012297361e-04
	2.168929133969057e-05
	6.442830995174980e-01

 100	1.000000000000001e+00
	-4.427052278639853e-16
	-1.352151267678452e-18
	-3.172474382459249e-15
	1.219344954149012e-06
	1.145595342638387e-04
	2.282172835789003e-05
	6.442832058630796e-01

 101	1.010000000000001e+00
	-4.383043382821059e-16
	-1.405894037516638e-18
	-3.179814032650429e-15
	1.264254629757222e-06
	1.171634762330600e-04
	2.398031178486779e-05
	6.442833146640006e-01

 102	1.020000000000001e+00
	-4.339283655304181e-16
	-1.461411097791172e-18
	-3.187048334266260e-15
	1.310048695600152e-06
	1.197453527672987e-04
	2.516482229776545e-05
	6.442834258996597e-01

 103	1.030000000000001e+00
	-4.295761676539396e-16
	-1.518766425814326e-18
	-3.194182020201466e-15
	1.356761631326073e-06
	1.223049013814361e-04
	2.637503789077273e-05
	6.442835395492101e-01

 104	1.040000000000001e+00
	-4.252466746130517e-16
	-1.578026609098670e-18
	-3.201219525831759e-15
	1.404429395626737e-06
	1.248418714683317e-04
	2.761073399399661e-05
	6.442836555915589e-01

 105	1.050000000000001e+00
	-4.209388823287705e-16
	-1.639260962651326e-18
	-3.208165013014909e-15
	1.453089500191786e-06
	1.273560242240723e-04
	2.887168359190212e-05
	6.442837740053847e-01

 106	1.060000000000001e+00
	-4.166518473752498e-16
	-1.702541652148608e-18
	-3.215022391571994e-15
	1.502781088282831e-06
	1.298471325229583e-04
	3.015765734074101e-05
	6.442838947691498e-01

 107	1.070000000000001e+00
	-4.123846822311323e-16
	-1.767943823294508e-18
	-3.221795338580874e-15
	1.553545018226113e-06
	1.323149807537702e-04
	3.146842368452918e-05
	6.442840178611066e-01

 108	1.080000000000001e+00
	-4.081365510157422e-16
	-1.835545737685812e-18
	-3.228487315761207e-15
	1.605423952150289e-06
	1.347593646259528e-04
	3.280374896922775e-05
	6.442841432593096e-01

 109	1.090000000000001e+00
	-4.039066656478994e-16
	-1.905428915525487e-18
	-3.235101585186925e-15
	1.658462450324186e-06
	1.371800909509120e-04
	3.416339755485762e-05
	6.442842709416287e-01

 110	1.100000000000001e+00
	-3.996942823748188e-16
	-1.977678285546240e-18
	-3.241641223526509e-15
	1.712707071478342e-06
	1.395769774024146e-04
	3.554713192531895e-05
	6.442844008857571e-01

 111	1.110000000000001e+00
	-3.954986986265112e-16
	-2.052382342527408e-18
	-3.248109134981911e-15
	1.768206479524915e-06
	1.419498522586888e-04
	3.695471279572074e-05
	6.442845330692223e-01

 112	1.120000000000001e+00
	-3.913192501577311e-16
	-2.129633312810335e-18
	-3.254508063072492e-15
	1.825011557123146e-06
	1.442985541280157e-04
	3.838589921704610e-05
	6.442846674693942e-01

 113	1.130000000000001e+00
	-3.871553084449380e-16
	-2.209527328241323e-18
	-3.260840601390020e-15
	1.883175526572671e-06
	1.466229316590390e-04
	3.984044867799653e-05
	6.442848040634958e-01

 114	1.140000000000001e+00
	-3.830062783103619e-16
	-2.292164608995275e-18
	-3.267109203433654e-15
	1.942754078554514e-06
	1.489228432366076e-04
	4.131811720386419e-05
	6.442849428286151e-01

 115	1.150000000000001e+00
	-3.788715957489701e-16
	-2.377649655759643e-18
	-3.273316191619666e-15
	2.003805509280391e-06
	1.511981566636957e-04
	4.281865945229382e-05
	6.442850837417089e-01

 116	1.160000000000001e+00
	-3.747507259374763e-16
	-2.466091451785273e-18
	-3.279463765548296e-15
	2.066390866654778e-06
	1.534487488297205e-04
	4.434182880579358e-05
	6.442852267796165e-01

 117	1.170000000000001e+00
	-3.706431614070986e-16
	-2.557603675339870e-18
	-3.285554009600137e-15
	2.130574106101842e-06
	1.556745053654365e-04
	4.588737746086225e-05
	6.442853719190649e-01

 118	1.180000000000001e+00
	-3.665484203641523e-16
	-2.652304923130130e-18
	-3.291588899925517e-15
	2.196422256760853e-06
	1.578753202844499e-04
	4.745505651359787e-05
	6.442855191366753e-01

 119	1.190000000000001e+00
	-3.624660451444993e-16
	-2.750318945290956e-18
	-3.297570310882879e-15
	2.264005598809487e-06
	1.600510956113024e-04
	4.904461604165296e-05
	6.442856684089782e-01

 120	1.200000000000001e+00
	-3.583956007894905e-16
	-2.851774892573096e-18
	-3.303500020975837e-15
	2.333397852735155e-06
	1.622017409959788e-04
	5.065580518240438e-05
	6.442858197124123e-01

 121	1.210000000000001e+00
	-3.543366737325592e-16
	-2.956807576397910e-18
	-3.309379718332833e-15
	2.404676381439956e-06
	1.643271733146128e-04
	5.228837220719765e-05
	6.442859730233350e-01

 122	1.220000000000001e+00
	-3.502888705867826e-16
	-3.065557742483726e-18
	-3.315211005768613e-15
	2.477922406136300e-06
	1.664273162560810e-04
	5.394206459152845e-05
	6.442861283180308e-01

 123	1.230000000000001e+00
	-3.462518170248357e-16
	-3.178172358789403e-18
	-3.320995405462557e-15
	2.553221237067443e-06
	1.685020998941003e-04
	5.561662908101719e-05
	6.442862855727139e-01

 124	1.240000000000001e+00
	-3.422251567437018e-16
	-3.294804918561320e-18
	-3.326734363285045e-15
	2.630662520171166e-06
	1.705514602443560e-04
	5.731181175303061e-05
	6.442864447635375e-01

 125	1.250000000000001e+00
	-3.382085505072950e-16
	-3.415615759315032e-18
	-3.332429252800031e-15
	2.710340500895802e-06
	1.725753388061086e-04
	5.902735807379752e-05
	6.442866058665950e-01

 126	1.260000000000001e+00
	-3.342016752608991e-16
	-3.540772398628190e-18
	-3.338081378968935e-15
	2.792354306476511e-06
	1.745736820876270e-04
	6.076301295085849e-05
	6.442867688579303e-01

 127	1.270000000000001e+00
	-3.302042233119128e-16
	-3.670449887670760e-18
	-3.343691981578604e-15
	2.876808248087192e-06
	1.765464411147147e-04
	6.251852078068866e-05
	6.442869337135368e-01

 128	1.280000000000001e+00
	-3.262159015720096e-16
	-3.804831183449010e-18
	-3.349262238413726e-15
	2.963812144399234e-06
	1.784935709214758e-04
	6.429362549131567e-05
	6.442871004093651e-01

 129	1.290000000000001e+00
	-3.222364308562582e-16
	-3.944107540794526e-18
	-3.354793268192158e-15
	3.053481668204814e-06
	1.804150300223740e-04
	6.608807057975292e-05
	6.442872689213253e-01

 130	1.300000000000001e+00
	-3.182655452352517e-16
	-4.088478925184827e-18
	-3.360286133279773e-15
	3.145938717899073e-06
	1.823107798645115e-04
	6.790159914405688e-05
	6.442874392252893e-01

 131	1.310000000000001e+00
	-3.143029914366240e-16
	-4.238154447542021e-18
	-3.365741842199925e-15
	3.241311815763520e-06
	1.841807842589289e-04
	6.973395390980099e-05
	6.442876112970963e-01

 132	1.320000000000001e+00
	-3.103485282927518e-16
	-4.393352822218133e-18
	-3.371161351951068e-15
	3.339736535154099e-06
	1.860250087896014e-04
	7.158487725075545e-05
	6.442877851125487e-01

 133	1.330000000000001e+00
	-3.064019262317322e-16
	-4.554302849440331e-18
	-3.376545570144829e-15
	3.441355958870652e-06
	1.878434201986477e-04
	7.345411120353582e-05
	6.442879606474209e-01

 134	1.340000000000001e+00
	-3.024629668089977e-16
	-4.721243923556876e-18
	-3.381895356975693e-15
	3.546321171173350e-06
	1.896359857461306e-04
	7.534139747598214e-05
	6.442881378774541e-01

 135	1.350000000000001e+00
	-2.985314422772421e-16
	-4.894426568496739e-18
	-3.387211527032254e-15
	3.654791786114625e-06
	1.914026725426430e-04
	7.724647744899898e-05
	6.442883167783595e-01

 136	1.360000000000001e+00
	-2.946071551925440e-16
	-5.074113001928333e-18
	-3.392494850959133e-15
	3.766936515075278e-06
	1.931434468527127e-04
	7.916909217157835e-05
	6.442884973258176e-01

 137	1.370000000000001e+00
	-2.906899180547660e-16
	-5.260577729681019e-18
	-3.397746056977770e-15
	3.882933776630644e-06
	1.948582733668554e-04
	8.110898234870210e-05
	6.442886794954774e-01

 138	1.380000000000001e+00
	-2.867795529805847e-16
	-5.454108172072650e-18
	-3.402965832273350e-15
	4.002972352128212e-06
	1.965471144399116e-04
	8.306588832179943e-05
	6.442888632629507e-01

 139	1.390000000000001e+00
	-2.828758914076252e-16
	-5.655005323869154e-18
	-3.408154824254539e-15
	4.127252090633132e-06
	1.982099292930747e-04
	8.503955004140692e-05
	6.442890486038162e-01

 140	1.400000000000001e+00
	-2.789787738283655e-16
	-5.863584449689446e-18
	-3.413313641691885e-15
	4.255984667193681e-06
	1.998466731767960e-04
	8.702970703165827e-05
	6.442892354936103e-01

 141	1.410000000000001e+00
	-2.750880495526550e-16
	-6.080175816755791e-18
	-3.418442855740222e-15
	4.389394398694893e-06
	2.014572964914958e-04
	8.903609834619266e-05
	6.442894239078261e-01

 142	1.420000000000001e+00
	-2.712035764978294e-16
	-6.305125466983986e-18
	-3.423543000849638e-15
	4.527719121907649e-06
	2.030417438627569e-04
	9.105846251504971e-05
	6.442896138219075e-01

 143	1.430000000000001e+00
	-2.673252210055078e-16
	-6.538796030499148e-18
	-3.428614575569298e-15
	4.671211138700245e-06
	2.045999531673831e-04
	9.309653748206954e-05
	6.442898052112429e-01

 144	1.440000000000001e+00
	-2.634528576843677e-16
	-6.781567582760867e-18
	-3.433658043247566e-15
	4.820138233763655e-06
	2.061318545064296e-04
	9.515006053229623e-05
	6.442899980511603e-01

 145	1.450000000000001e+00
	-2.595863692782296e-16
	-7.033838547579937e-18
	-3.438673832631706e-15
	4.974784770605949e-06
	2.076373691209897e-04
	9.721876820882741e-05
	6.442901923169156e-01

 146	1.460000000000001e+00
	-2.557256465589614e-16
	-7.296026648406589e-18
	-3.443662338369759e-15
	5.135452871998184e-06
	2.091164082462030e-04
	9.930239621851770e-05
	6.442903879836880e-01

 147	1.470000000000001e+00
	-2.518705882437974e-16
	-7.568569910373313e-18
	-3.448623921416905e-15
	5.302463691500038e-06
	2.105688718986181e-04
	1.014006793258936e-04
	6.442905850265689e-01

 148	1.480000000000001e+00
	-2.480211009367591e-16
	-7.851927715675150e-18
	-3.453558909348206e-15
	5.476158783156628e-06
	2.119946475916876e-04
	1.035133512345887e-04
	6.442907834205484e-01

 149	1.490000000000001e+00
	-2.441770990939996e-16
	-8.146581914970811e-18
	-3.458467596579172e-15
	5.656901576934446e-06
	2.133936089738248e-04
	1.056401444555512e-04
	6.442909831405049e-01

 150	1.500000000000001e+00
	-2.403385050129706e-16
	-8.453037997589583e-18
	-3.463350244495337e-15
	5.845078967949258e-06
	2.147656143830915e-04
	1.077807901612206e-04
	6.442911841611917e-01

 151	1.510000000000001e+00
	-2.365052488453830e-16
	-8.771826323423529e-18
	-3.468207081491656e-15
	6.041103028025113e-06
	2.161105053122277e-04
	1.099350180248099e-04
	6.442913864572221e-01

 152	1.520000000000001e+00
	-2.326772686340528e-16
	-9.103503419481861e-18
	-3.473038302922242e-15
	6.245412848601188e-06
	2.174281047773889e-04
	1.121025560437629e-04
	6.442915900030514e-01

 153	1.530000000000001e+00
	-2.288545103737960e-16
	-9.448653344170783e-18
	-3.477844070960586e-15