Title: ** sch_path: /home/andylithia/openmpw/project-yatsuhashi-chip1/xschem/gmid_test/nmos_test.sch
Date: Sun Jul 17 22:51:45  2022
Plotname: DC transfer characteristic
Flags: real
No. Variables: 8
No. Points: 181
Variables:
	0	v(v-sweep)	voltage
	1	@m.xm1.msky130_fd_pr__nfet_01v8[cgb]	capacitance
	2	@m.xm1.msky130_fd_pr__nfet_01v8[cgd]	capacitance
	3	@m.xm1.msky130_fd_pr__nfet_01v8[cgs]	capacitance
	4	@m.xm1.msky130_fd_pr__nfet_01v8[gds]	admittance
	5	@m.xm1.msky130_fd_pr__nfet_01v8[gm]	admittance
	6	i(@m.xm1.msky130_fd_pr__nfet_01v8[id])	current
	7	v(@m.xm1.msky130_fd_pr__nfet_01v8[vth])	voltage
Values:
 0	0.000000000000000e+00
	-5.305758789979329e-15
	-1.018012311670131e-18
	-6.609818953506920e-15
	3.643438359808964e-08
	1.274855903092211e-06
	1.363467455601771e-07
	3.076547484590040e-01

 1	1.000000000000000e-02
	-5.248138092043632e-15
	-1.051124670129655e-18
	-6.738356782990925e-15
	3.994217138320663e-08
	1.397899786297026e-06
	1.497011868832081e-07
	3.076547499150499e-01

 2	2.000000000000000e-02
	-5.190953108733828e-15
	-1.085284994659584e-18
	-6.867521551380361e-15
	4.377640860636648e-08
	1.532664915342553e-06
	1.643437841259738e-07
	3.076547515115480e-01

 3	3.000000000000000e-02
	-5.134222288673353e-15
	-1.120523751397893e-18
	-6.997255564350953e-15
	4.796592698934408e-08
	1.680267987040376e-06
	1.803972458225092e-07
	3.076547532618764e-01

 4	4.000000000000000e-02
	-5.077964061314881e-15
	-1.156872219232757e-18
	-7.127500229253552e-15
	5.254190012050682e-08
	1.841935713477141e-06
	1.979959882086449e-07
	3.076547551806927e-01

 5	5.000000000000000e-02
	-5.022196792045165e-15
	-1.194362514182419e-18
	-7.258196152356121e-15
	5.753800800303390e-08
	2.019016615990275e-06
	2.172872932257904e-07
	3.076547572840553e-01

 6	6.000000000000000e-02
	-4.966938737574843e-15
	-1.233027614852177e-18
	-7.389283238661097e-15
	6.299061013433093e-08
	2.212994230623478e-06
	2.384325913793772e-07
	3.076547595895683e-01

 7	7.000000000000001e-02
	-4.912208001762995e-15
	-1.272901389017132e-18
	-7.520700793967734e-15
	6.893892722203515e-08
	2.425501902870825e-06
	2.616088844391560e-07
	3.076547621165289e-01

 8	8.000000000000000e-02
	-4.858022492026185e-15
	-1.314018621379638e-18
	-7.652387628835208e-15
	7.542523160432759e-08
	2.658339369705003e-06
	2.870103248461407e-07
	3.076547648861101e-01

 9	9.000000000000000e-02
	-4.804399876479906e-15
	-1.356415042553121e-18
	-7.784282164092486e-15
	8.249504640093759e-08
	2.913491348469822e-06
	3.148499707777752e-07
	3.076547679215448e-01

 10	9.999999999999999e-02
	-4.751357541958001e-15
	-1.400127359323882e-18
	-7.916322537531271e-15
	9.019735337623961e-08
	3.193148375059171e-06
	3.453617381316710e-07
	3.076547712483370e-01

 11	1.100000000000000e-01
	-4.698912553052496e-15
	-1.445193286244159e-18
	-8.048446711411681e-15
	9.858480944748138e-08
	3.499730157699362e-06
	3.788025732309876e-07
	3.076547748945094e-01

 12	1.200000000000000e-01
	-4.647081612311944e-15
	-1.491651578611930e-18
	-8.180592580406158e-15
	1.077139717197449e-07
	3.835911737306698e-06
	4.154548728404694e-07
	3.076547788908498e-01

 13	1.300000000000000e-01
	-4.595881021731634e-15
	-1.539542066892853e-18
	-8.312698079603086e-15
	1.176455308748471e-07
	4.204652770406545e-06
	4.556291811161554e-07
	3.076547832712284e-01

 14	1.400000000000000e-01
	-4.545326645662985e-15
	-1.588905692642718e-18
	-8.444701292193187e-15
	1.284445526848198e-07
	4.609230275476425e-06
	4.996671963965730e-07
	3.076547880729053e-01

 15	1.500000000000000e-01
	-4.495433875263119e-15
	-1.639784545989444e-18
	-8.576540556461449e-15
	1.401807273618506e-07
	5.053275207655467e-06
	5.479451242722929e-07
	3.076547933369034e-01

 16	1.600000000000000e-01
	-4.446217594598236e-15
	-1.692221904735614e-18
	-8.708154571712656e-15
	1.529286263966105e-07
	5.540813249269814e-06
	6.008774171341623e-07
	3.076547991084184e-01

 17	1.700000000000000e-01
	-4.397692148506517e-15
	-1.746262275144328e-18
	-8.839482502764180e-15
	1.667679664760368e-07
	6.076310223592399e-06
	6.589209443767229e-07
	3.076548054372767e-01

 18	1.800000000000000e-01
	-4.349871312317652e-15
	-1.801951434473374e-18
	-8.970464082648421e-15
	1.817838800106671e-07
	6.664722555556217e-06
	7.225796415919033e-07
	3.076548123784326e-01

 19	1.900000000000000e-01
	-4.302768263517206e-15
	-1.859336475323947e-18
	-9.101039713176425e-15
	1.980671917411100e-07
	7.311553214440872e-06
	7.924096913853637e-07
	3.076548199925412e-01

 20	2.000000000000000e-01
	-4.256395555434360e-15
	-1.918465851873195e-18
	-9.231150563027874e-15
	2.157147008341448e-07
	8.022913578330999e-06
	8.690252928272761e-07
	3.076548283465868e-01

 21	2.100000000000000e-01
	-4.210765093021593e-15
	-1.979389428061985e-18
	-9.360738663045808e-15
	2.348294678217540e-07
	8.805591656657515e-06
	9.531050809359898e-07
	3.076548375145786e-01

 22	2.200000000000001e-01
	-4.165888110784702e-15
	-2.042158527811198e-18
	-9.489746998430587e-15
	2.555211056820482e-07
	9.667127093436565e-06
	1.045399261895235e-06
	3.076548475783356e-01

 23	2.300000000000001e-01
	-4.121775152911076e-15
	-2.106825987343571e-18
	-9.618119597545114e-15
	2.779060743103907e-07
	1.061589334777501e-05
	1.146737533810943e-06
	3.076548586283500e-01

 24	2.400000000000001e-01
	-4.078436055633269e-15
	-2.173446209690288e-18
	-9.745801617062561e-15
	3.021079775825914e-07
	1.166118740747414e-05
	1.258037866586295e-06
	3.076548707647395e-01

 25	2.500000000000001e-01
	-4.035879931854479e-15
	-2.242075221464867e-18
	-9.872739423207414e-15
	3.282578621708393e-07
	1.281332733365037e-05
	1.380316217774752e-06
	3.076548840983133e-01

 26	2.600000000000001e-01
	-3.994115158051502e-15
	-2.312770731990656e-18
	-9.998880668863092e-15
	3.564945172377150e-07
	1.408375785658992e-05
	1.514697263875818e-06
	3.076548987517353e-01

 27	2.700000000000001e-01
	-3.953149363460265e-15
	-2.385592194870413e-18
	-1.012417436634084e-14
	3.869647741046760e-07
	1.548516414287096e-05
	1.662426228254400e-06
	3.076549148608321e-01

 28	2.800000000000001e-01
	-3.912989421538314e-15
	-2.460600872093169e-18
	-1.024857095562914e-14
	4.198238049700051e-07
	1.703159372846311e-05
	1.824881887456510e-06
	3.076549325759890e-01

 29	2.900000000000001e-01
	-3.873641443688655e-15
	-2.537859900774388e-18
	-1.037202236796496e-14
	4.552354197369450e-07
	1.873858645941349e-05
	2.003590836891713e-06
	3.076549520637261e-01

 30	3.000000000000001e-01
	-3.835110775218912e-15
	-2.617434362632084e-18
	-1.049448208459469e-14
	4.933723600075882e-07
	2.062331209851103e-05
	2.200243094373812e-06
	3.076549735083876e-01

 31	3.100000000000001e-01
	-3.797401993500666e-15
	-2.699391356306125e-18
	-1.061590519061495e-14
	5.344165893006970e-07
	2.270471504083381e-05
	2.416709115534391e-06
	3.076549971140081e-01

 32	3.200000000000001e-01
	-3.760518908283995e-15
	-2.783800072631520e-18
	-1.073624842381032e-14
	5.785595785641809e-07
	2.500366533179381e-05
	2.655058288327109e-06
	3.076550231063260e-01

 33	3.300000000000001e-01
	-3.724464564114219e-15
	-2.870731872984585e-18
	-1.085547021842750e-14
	6.260025860740176e-07
	2.754311489716078e-05
	2.917578964371735e-06
	3.076550517349754e-01

 34	3.400000000000001e-01
	-3.689241244789008e-15
	-2.960260370823570e-18
	-1.097353074385181e-14
	6.769569308426528e-07
	3.034825757549391e-05
	3.206800072403437e-06
	3.076550832758349e-01

 35	3.500000000000001e-01
	-3.654850479786875e-15
	-3.052461516554024e-18
	-1.109039193817356e-14
	7.316442586998347e-07
	3.344669119026561e-05
	3.525514343241152e-06
	3.076551180335755e-01

 36	3.600000000000002e-01
	-3.621293052590758e-15
	-3.147413685854037e-18
	-1.120601753665735e-14
	7.902968002591456e-07
	3.686857951394559e-05
	3.876803156146609e-06
	3.076551563443631e-01

 37	3.700000000000002e-01
	-3.588569010824211e-15
	-3.245197771602741e-18
	-1.132037309514797e-14
	8.531576200419410e-07
	4.064681156295804e-05
	4.264062992900273e-06
	3.076551985787511e-01

 38	3.800000000000002e-01
	-3.556677678111945e-15
	-3.345897279561308e-18
	-1.143342600846937e-14
	9.204808560985150e-07
	4.481715522612595e-05
	4.691033458123612e-06
	3.076552451447380e-01

 39	3.900000000000002e-01
	-3.525617667571558e-15
	-3.449598427964878e-18
	-1.154514552389332e-14
	9.925319495419975e-07
	4.941840177712456e-05
	5.161826792126331e-06
	3.076552964909862e-01

 40	4.000000000000002e-01
	-3.495386896838779e-15
	-3.556390251190599e-18
	-1.165550274977396e-14
	1.069587863493916e-06
	5.449249736291099e-05
	5.680958765743029e-06
	3.076553531102045e-01

 41	4.100000000000002e-01
	-3.465982604525213e-15
	-3.666364707677058e-18
	-1.176447065946289e-14
	1.151937291030213e-06
	6.008465710659502e-05
	6.253380805238558e-06
	3.076554155426448e-01

 42	4.200000000000002e-01
	-3.437401368004494e-15
	-3.779616792278385e-18
	-1.187202409063604e-14
	1.239880851810954e-06
	6.624345702852648e-05
	6.884513149516666e-06
	3.076554843797269e-01

 43	4.300000000000002e-01
	-3.409639122420610e-15
	-3.896244653245546e-18
	-1.197813974017975e-14
	1.333731277175577e-06
	7.302089858969178e-05
	7.580278791840773e-06
	3.076555602677439e-01

 44	4.400000000000002e-01
	-3.382691180810620e-15
	-4.016349714038897e-18
	-1.208279615479724e-14
	1.433813583584955e-06
	8.047244031503530e-05
	8.347137904497905e-06
	3.076556439116214e-01

 45	4.500000000000002e-01
	-3.356552255233213e-15
	-4.140036800184304e-18
	-1.218597371750945e-14
	1.540465234390512e-06
	8.865699068140719e-05
	9.192122387949302e-06
	3.076557360786892e-01

 46	4.600000000000002e-01
	-3.331216478794190e-15
	-4.267414271398636e-18
	-1.228765463023576e-14
	1.654036290005689e-06
	9.763685627732870e-05
	1.012287012685345e-05
	3.076558376024241e-01

 47	4.700000000000003e-01
	-3.306677428460506e-15
	-4.398594159218927e-18
	-1.238782289264955e-14
	1.774889546643500e-06
	1.074776391827066e-04
	1.114765847499472e-05
	3.076559493860993e-01

 48	4.800000000000003e-01
	-3.282928148555407e-15
	-4.533692310384467e-18
	-1.248646427751170e-14
	1.903400663861494e-06
	1.182480775994106e-04
	1.227543643090119e-05
	3.076560724062999e-01

 49	4.900000000000003e-01
	-3.259961174828816e-15
	-4.672828536230954e-18
	-1.258356630269213e-14
	2.039958281218742e-06
	1.300198240113298e-04
	1.351585490733219e-05
	3.076562077162309e-01

 50	5.000000000000002e-01
	-3.237768558999019e-15
	-4.816126768370352e-18
	-1.267911820009470e-14
	2.184964124393766e-06
	1.428671555867397e-04
	1.487929444261888e-05
	3.076563564487386e-01

 51	5.100000000000002e-01
	-3.216341893664415e-15
	-4.963715220943580e-18
	-1.277311088170434e-14
	2.338833101132343e-06
	1.568666121755393e-04
	1.637688965201241e-05
	3.076565198189772e-01

 52	5.200000000000002e-01
	-3.195672337486919e-15
	-5.115726559746329e-18
	-1.286553690297792e-14
	2.501993387385612e-06
	1.720965581143795e-04
	1.802054967487874e-05
	3.076566991266395e-01

 53	5.300000000000002e-01
	-3.175750640552014e-15
	-5.272298078543309e-18
	-1.295639042380135e-14
	2.674886503956272e-06
	1.886366651437937e-04
	1.982297384103671e-05
	3.076568957576706e-01

 54	5.400000000000003e-01
	-3.156567169814055e-15
	-5.433571882903622e-18
	-1.304566716723541e-14
	2.857967383889298e-06
	2.065673150665387e-04
	2.179766175910687e-05
	3.076571111853553e-01

 55	5.500000000000003e-01
	-3.138111934539630e-15
	-5.599695081900972e-18
	-1.313336437627093e-14
	3.051704430717693e-06
	2.259689223306796e-04
	2.395891702373175e-05
	3.076573469707261e-01

 56	5.600000000000003e-01
	-3.120374611665641e-15
	-5.770819988045594e-18
	-1.321948076881197e-14
	3.256579567501645e-06
	2.469211784908564e-04
	2.632184374920578e-05
	3.076576047621797e-01

 57	5.700000000000003e-01
	-3.103344570993731e-15
	-5.947104325826504e-18
	-1.330401649110178e-14
	3.473088276375351e-06
	2.695022224624172e-04
	2.890233516643007e-05
	3.076578862942213e-01

 58	5.800000000000003e-01
	-3.087010900146829e-15
	-6.128711449264699e-18
	-1.338697306980157e-14
	3.701739628040243e-06
	2.937877426008960e-04
	3.171705356995267e-05
	3.076581933852732e-01

 59	5.900000000000003e-01
	-3.071362429218703e-15
	-6.315810568894781e-18
	-1.346835336292744e-14
	3.943056300315581e-06
	3.198500188675470e-04
	3.478340097350417e-05
	3.076585279344624e-01

 60	6.000000000000003e-01
	-3.056387755052052e-15
	-6.508576988614375e-18
	-1.354816150984362e-14
	4.197574584479857e-06
	3.477569156233121e-04
	3.811947992671223e-05
	3.076588919173356e-01

 61	6.100000000000003e-01
	-3.042075265085647e-15
	-6.707192352860645e-18
	-1.362640288050447e-14
	4.465844377714898e-06
	3.775708378617156e-04
	4.174404406278710e-05
	3.076592873804531e-01

 62	6.200000000000003e-01
	-3.028413160715865e-15
	-6.911844904596040e-18
	-1.370308402412921e-14
	4.748429159506339e-06
	4.093476658700324e-04
	4.567643808638852e-05
	3.076597164348263e-01

 63	6.300000000000003e-01
	-3.015389480123068e-15
	-7.122729754608638e-18
	-1.377821261748621e-14
	5.045905949371465e-06
	4.431356853156268e-04
	4.993652707130748e-05
	3.076601812481983e-01

 64	6.400000000000003e-01
	-3.002992120517664e-15
	-7.340049162659227e-18
	-1.385179741295506e-14
	5.358865242793580e-06
	4.789745315049014e-04
	5.454461511687993e-05
	3.076606840361499e-01

 65	6.500000000000004e-01
	-2.991208859766078e-15
	-7.564012831030335e-18
	-1.392384818652583e-14
	5.687910921758117e-06
	5.168941679696510e-04
	5.952135360714870e-05
	3.076612270520855e-01

 66	6.600000000000004e-01
	-2.980027377360808e-15
	-7.794838211064813e-18
	-1.399437568588686e-14
	6.033660135835359e-06
	5.569139205177262e-04
	6.488763952389181e-05
	3.076618125761252e-01

 67	6.700000000000004e-01
	-2.969435274703911e-15
	-8.032750823308203e-18
	-1.406339157874229e-14
	6.396743149358384e-06
	5.990415883667009e-04
	7.066450447902230e-05
	3.076624429029877e-01

 68	6.800000000000004e-01
	-2.959420094677145e-15
	-8.277984591903247e-18
	-1.413090840149278e-14
	6.777803149935177e-06
	6.432726538986279e-04
	7.687299534825971e-05
	3.076631203289618e-01

 69	6.900000000000004e-01
	-2.949969340476526e-15
	-8.530782193918146e-18
	-1.419693950840289e-14
	7.177496013336667e-06
	6.895896118842827e-04
	8.353404760044341e-05
	3.076638471380807e-01

 70	7.000000000000004e-01
	-2.941070493692856e-15
	-8.791395424325623e-18
	-1.426149902137029e-14
	7.596490019748310e-06
	7.379614377003399e-04
	9.066835261916312e-05
	3.076646255876425e-01

 71	7.100000000000004e-01
	-2.932711031623851e-15
	-9.060085577391461e-18
	-1.432460178040269e-14
	8.035465516490681e-06
	7.883432120994353e-04
	9.829622049913343e-05
	3.076654578932426e-01

 72	7.200000000000004e-01
	-2.924878443806895e-15
	-9.337123845268716e-18
	-1.438626329489999e-14
	8.495114522630292e-06
	8.406759175129730e-04
	1.064374399626324e-04
	3.076663462134816e-01

 73	7.300000000000004e-01
	-2.917560247765161e-15
	-9.622791734639633e-18
	-1.444649969583070e-14
	8.976140271433805e-06
	8.948864177176719e-04
	1.151111371753684e-04
	3.076672926345816e-01

 74	7.400000000000004e-01
	-2.910744003962766e-15
	-9.917381502294482e-18
	-1.450532768888332e-14
	9.479256687388311e-06
	9.508876290537558e-04
	1.243356353411039e-04
	3.076682991550557e-01

 75	7.500000000000004e-01
	-2.904417329968058e-15
	-1.022119661058383e-17
	-1.456276450866540e-14
	1.000518779551609e-05
	1.008578887342557e-03
	1.341283170156377e-04
	3.076693676707116e-01

 76	7.600000000000005e-01
	-2.898567913826455e-15
	-1.053455220373573e-17
	-1.461882787401563e-14
	1.055466706196139e-05
	1.067846510334020e-03
	1.445054911001379e-04
	3.076704999601312e-01

 77	7.700000000000005e-01
	-2.893183526647411e-15
	-1.085777560608175e-17
	-1.467353594448626e-14
	1.112843666629683e-05
	1.128564551054429e-03
	1.554822664490327e-04
	3.076716976709050e-01

 78	7.800000000000005e-01
	-2.888252034412113e-15
	-1.119120684329636e-17
	-1.472690727804682e-14
	1.172724670767480e-05
	1.190595732969018e-03
	1.670724339582642e-04
	3.076729623067710e-01

 79	7.900000000000005e-01
	-2.883761409010878e-15
	-1.153519918781633e-17
	-1.477896079005262e-14
	1.235185434878924e-05
	1.253792553572152e-03
	1.792883588862816e-04
	3.076742952158823e-01

 80	8.000000000000005e-01
	-2.879699738521293e-15
	-1.189011972966909e-17
	-1.482971571351524e-14
	1.300302290357860e-05
	1.317998539018607e-03
	1.921408850052057e-04
	3.076756975803530e-01

 81	8.100000000000005e-01
	-2.876055236739959e-15
	-1.225634997400899e-17
	-1.487919156070601e-14
	1.368152087663040e-05
	1.383049628850803e-03
	2.056392519867667e-04
	3.076771704072648e-01

 82	8.200000000000005e-01
	-2.872816251982288e-15
	-1.263428646673220e-17
	-1.492740808611734e-14
	1.438812096428277e-05
	1.448775666881477e-03
	2.197910272020523e-04
	3.076787145212293e-01

 83	8.300000000000005e-01
	-2.869971275166463e-15
	-1.302434144961577e-17
	-1.497438525080103e-14
	1.512359902938861e-05
	1.515001971959476e-03
	2.346020528619245e-04
	3.076803305586370e-01

 84	8.400000000000005e-01
	-2.867508947198752e-15
	-1.342694354650478e-17
	-1.502014318809756e-14
	1.588873306354421e-05
	1.581550960752136e-03
	2.500764091532753e-04
	3.076820189636301e-01

 85	8.500000000000005e-01
	-2.865418065678892e-15
	-1.384253848215236e-17
	-1.506470217076447e-14
	1.668430215221603e-05
	1.648243793865168e-03
	2.662163937426685e-04
	3.076837799858812e-01

 86	8.600000000000005e-01
	-2.863687590944882e-15
	-1.427158983540625e-17
	-1.510808257950795e-14
	1.751108545956400e-05
	1.714902016603009e-03
	2.830225177313596e-04
	3.076856136801626e-01

 87	8.700000000000006e-01
	-2.862306651477590e-15
	-1.471457982852781e-17
	-1.515030487291617e-14
	1.836986125079853e-05
	1.781349166430852e-03
	3.004935178620284e-04
	3.076875199076622e-01

 88	8.800000000000006e-01
	-2.861264548686443e-15
	-1.517201015451081e-17
	-1.519138955878896e-14
	1.926140597056805e-05
	1.847412320685191e-03
	3.186263845052248e-04
	3.076894983390647e-01

 89	8.900000000000006e-01
	-2.860550761097506e-15
	-1.564440284438853e-17
	-1.523135716685448e-14
	2.018649339613750e-05
	1.912923560220378e-03
	3.374164046998021e-04
	3.076915484592279e-01

 90	9.000000000000006e-01
	-2.860154947966495e-15
	-1.613230117659579e-17
	-1.527022822285871e-14
	2.114589388393910e-05
	1.977721327375485e-03
	3.568572192919573e-04
	3.076936695734294e-01

 91	9.100000000000006e-01
	-2.860066952338864e-15
	-1.663627063058060e-17
	-1.530802322401111e-14
	2.214037372748082e-05
	2.041651659789029e-03
	3.769408930175743e-04
	3.076958608150070e-01

 92	9.200000000000006e-01
	-2.860276803579719e-15
	-1.715689988696184e-17
	-1.534476261576562e-14
	2.317069464357098e-05
	2.104569285053402e-03
	3.976579962055999e-04
	3.076981211542775e-01

 93	9.300000000000006e-01
	-2.860774719396271e-15
	-1.769480187665149e-17
	-1.538046676991326e-14
	2.423761340240854e-05
	2.166338564860437e-03
	4.189976966492061e-04
	3.077004494085565e-01

 94	9.400000000000006e-01
	-2.861551107375532e-15
	-1.825061488148481e-17
	-1.541515596395989e-14
	2.534188161532104e-05
	2.226834281016740e-03
	4.409478600973707e-04
	3.077028442531226e-01

 95	9.500000000000006e-01
	-2.862596566059871e-15
	-1.882500368903030e-17
	-1.544885036176004e-14
	2.648424569187682e-05
	2.285942259384350e-03
	4.634951577626837e-04
	3.077053042329466e-01

 96	9.600000000000006e-01
	-2.863901885582729e-15
	-1.941866080438897e-17
	-1.548156999537551e-14
	2.766544697580091e-05
	2.343559831319578e-03
	4.866251792201871e-04
	3.077078277750088e-01

 97	9.700000000000006e-01
	-2.865458047886632e-15
	-2.003230772193492e-17
	-1.551333474812514e-14
	2.888622206667324e-05
	2.399596135448405e-03
	5.103225490851658e-04
	3.077104132010267e-01

 98	9.800000000000006e-01
	-2.867256226545214e-15
	-2.066669626009861e-17
	-1.554416433879097e-14
	3.014730333183689e-05
	2.453972265553909e-03
	5.345710459017216e-04
	3.077130587404323e-01

 99	9.900000000000007e-01
	-2.869287786210339e-15
	-2.132260996245485e-17
	-1.557407830694402e-14
	3.144941961038579e-05
	2.506621272903634e-03
	5.593537217454350e-04
	3.077157625434177e-01

 100	1.000000000000001e+00
	-2.871544281705190e-15
	-2.200086556853856e-17
	-1.560309599935198e-14
	3.279329710859065e-05
	2.557488033473911e-03
	5.846530211380850e-04
	3.077185226939011e-01

 101	1.010000000000001e+00
	-2.874017456783477e-15
	-2.270231455798257e-17
	-1.563123655743005e-14
	3.417966048373213e-05
	2.606528992215034e-03
	6.104508979860880e-04
	3.077213372223064e-01

 102	1.020000000000001e+00
	-2.876699242574016e-15
	-2.342784477176335e-17
	-1.565851890569562e-14
	3.560923411110525e-05
	2.653711797743990e-03
	6.367289293826269e-04
	3.077242041179621e-01

 103	1.030000000000001e+00
	-2.879581755729851e-15
	-2.417838211451588e-17
	-1.568496174118670e-14
	3.708274352696936e-05
	2.699014841661819e-03
	6.634684252517256e-04
	3.077271213410687e-01

 104	1.040000000000001e+00
	-2.882657296299833e-15
	-2.495489234208538e-17
	-1.571058352380383e-14
	3.860091703850289e-05
	2.742426717097837e-03
	6.906505329568758e-04
	3.077300868341227e-01

 105	1.050000000000001e+00
	-2.885918345339983e-15
	-2.575838293869115e-17
	-1.573540246753552e-14
	4.016448749040215e-05
	2.783945611117989e-03
	7.182563361433275e-04
	3.077330985326873e-01

 106	1.060000000000001e+00
	-2.889357562281499e-15
	-2.658990508828824e-17
	-1.575943653252648e-14
	4.177419417664245e-05
	2.823578645341893e-03
	7.462669472279978e-04
	3.077361543754951e-01

 107	1.070000000000001e+00
	-2.892967782070876e-15
	-2.745055574494149e-17
	-1.578270341794920e-14
	4.343078488513337e-05
	2.861341178542258e-03
	7.746635930917137e-04
	3.077392523137973e-01

 108	1.080000000000001e+00
	-2.896742012097433e-15
	-2.834147980726513e-17
	-1.580522055563891e-14
	4.513501806251410e-05
	2.897256084199583e-03
	8.034276936620499e-04
	3.077423903199273e-01

 109	1.090000000000001e+00
	-2.900673428922399e-15
	-2.926387240220853e-17
	-1.582700510445306e-14
	4.688766508615448e-05
	2.931353015005489e-03
	8.325409331996569e-04
	3.077455663950974e-01

 110	1.100000000000001e+00
	-2.904755374822723e-15
	-3.021898128374584e-17
	-1.584807394531703e-14
	4.868951263054338e-05
	2.963667665198848e-03
	8.619853242152994e-04
	3.077487785763555e-01

 111	1.110000000000001e+00
	-2.908981354162481e-15
	-3.120810935226619e-17
	-1.586844367691812e-14
	5.054136511559820e-05
	2.994241040423217e-03
	8.917432640471944e-04
	3.077520249427639e-01

 112	1.120000000000001e+00
	-2.913345029603426e-15
	-3.223261730074225e-17
	-1.588813061201131e-14
	5.244404722503243e-05
	3.023118743555858e-03
	9.217975842187701e-04
	3.077553036207895e-01

 113	1.130000000000001e+00
	-2.917840218165749e-15
	-3.329392639403484e-17
	-1.590715077430038e-14
	5.439840648371287e-05
	3.050350283711876e-03
	9.521315927748995e-04
	3.077586127889191e-01

 114	1.140000000000001e+00
	-2.922460887148945e-15
	-3.439352138797567e-17
	-1.592551989586005e-14
	5.640531588389348e-05
	3.075988414403454e-03
	9.827291098602183e-04
	3.077619506815361e-01

 115	1.150000000000001e+00
	-2.927201149922541e-15
	-3.553295359516064e-17
	-1.594325341506416e-14
	5.846567655129891e-05
	3.100088505658764e-03
	1.013574496856651e-03
	3.077653155921067e-01

 116	1.160000000000001e+00
	-2.932055261594858e-15
	-3.671384410469235e-17
	-1.596036647498766e-14
	6.058042044322995e-05
	3.122707953798619e-03
	1.044652679439651e-03
	3.077687058756902e-01

 117	1.170000000000001e+00
	-2.937017614567833e-15
	-3.793788716342095e-17
	-1.597687392224995e-14
	6.275051307210696e-05
	3.143905631544917e-03
	1.075949164944011e-03
	3.077721199508320e-01

 118	1.180000000000001e+00
	-2.942082733984941e-15
	-3.920685372652940e-17
	-1.599279030626869e-14
	6.497695624916664e-05
	3.163741380204741e-03
	1.107450054452048e-03
	3.077755563008809e-01

 119	1.190000000000001e+00
	-2.947245273078541e-15
	-4.052259518563748e-17
	-1.600812987889405e-14
	6.726079084432807e-05
	3.182275544843093e-03
	1.139142050029878e-03
	3.077790134747858e-01

 120	1.200000000000001e+00
	-2.952500008422265e-15
	-4.188704728291679e-17
	-1.602290659439465e-14
	6.960309955954703e-05
	3.199568552628693e-03
	1.171012457542922e-03
	3.077824900873916e-01

 121	1.210000000000001e+00
	-2.957841835093425e-15
	-4.330223422000910e-17
	-1.603713410976715e-14
	7.200500971422743e-05
	3.215680533909346e-03
	1.203049185480053e-03
	3.077859848193112e-01

 122	1.220000000000001e+00
	-2.963265761749782e-15
	-4.477027297087271e-17
	-1.605082578534267e-14
	7.446769604248658e-05
	3.230670985044812e-03
	1.235240740208753e-03
	3.077894964164088e-01

 123	1.230000000000001e+00
	-2.968766905624260e-15
	-4.629337780797748e-17
	-1.606399468566420e-14
	7.699238350322111e-05
	3.244598471589611e-03
	1.267576218071451e-03
	3.077930236889445e-01

 124	1.240000000000001e+00
	-2.974340487440618e-15
	-4.787386505158446e-17
	-1.607665358061012e-14
	7.958035010501885e-05
	3.257520370070275e-03
	1.300045294717482e-03
	3.077965655103888e-01

 125	1.250000000000001e+00
	-2.979981826252761e-15
	-4.951415805211803e-17
	-1.608881494673965e-14
	8.223292974894857e-05
	3.269492646333027e-03
	1.332638212045768e-03
	3.078001208160168e-01

 126	1.260000000000001e+00
	-2.985686334209204e-15
	-5.121679241592718e-17
	-1.610049096883771e-14
	8.495151509322421e-05
	3.280569668242852e-03
	1.365345763112474e-03
	3.078036886012444e-01

 127	1.270000000000001e+00
	-2.991449511244540e-15
	-5.298442148498031e-17
	-1.611169354163642e-14
	8.773756044454788e-05
	3.290804050382263e-03
	1.398159275334553e-03
	3.078072679198119e-01

 128	1.280000000000001e+00
	-2.997266939698267e-15
	-5.481982208127348e-17
	-1.612243427169259e-14
	9.059258468174217e-05
	3.300246528323422e-03
	1.431070592296597e-03
	3.078108578817805e-01

 129	1.290000000000001e+00
	-3.003134278861766e-15
	-5.672590052691941e-17
	-1.613272447940045e-14
	9.351817421792127e-05
	3.308945860018584e-03
	1.464072054443568e-03
	3.078144576514314e-01

 130	1.300000000000001e+00
	-3.009047259453309e-15
	-5.870569895105136e-17
	-1.614257520112000e-14
	9.651598600808584e-05
	3.316948751867716e-03
	1.497156478917827e-03
	3.078180664450704e-01

 131	1.310000000000001e+00
	-3.015001678020426e-15
	-6.076240189479908e-17
	-1.615199719140240e-14
	9.958775060954072e-05
	3.324299807068477e-03
	1.530317138774539e-03
	3.078216835287499e-01

 132	1.320000000000001e+00
	-3.020993391269216e-15
	-6.289934322562947e-17
	-1.616100092529417e-14
	1.027352753029883e-04
	3.331041493927423e-03
	1.563547741786012e-03
	3.078253082159652e-01

 133	1.330000000000001e+00
	-3.027018310319144e-15
	-6.512001337236819e-17
	-1.616959660070288e-14
	1.059604472825542e-04
	3.337214131906845e-03
	1.596842409022878e-03
	3.078289398653021e-01

 134	1.340000000000001e+00
	-3.033072394882243e-15
	-6.742806689211680e-17
	-1.617779414080766e-14
	1.092652369233013e-04
	3.342855893292246e-03
	1.630195653378101e-03
	3.078325778781125e-01

 135	1.350000000000001e+00
	-3.039151647364834e-15
	-6.982733038013101e-17
	-1.618560319649885e-14
	1.126517011351102e-04
	3.348002818489210e-03
	1.663602358179807e-03
	3.078362216961631e-01

 136	1.360000000000001e+00
	-3.045252106890233e-15
	-7.232181073344195e-17
	-1.619303314883103e-14
	1.161219868119626e-04
	3.352688843087938e-03
	1.697057756019058e-03
	3.078398707993313e-01

 137	1.370000000000001e+00
	-3.051369843240520e-15
	-7.491570377862330e-17
	-1.620009311147509e-14
	1.196783343858880e-04
	3.356945834968946e-03
	1.730557407901321e-03
	3.078435247033345e-01

 138	1.380000000000001e+00
	-3.057500950715281e-15
	-7.761340327360478e-17
	-1.620679193315530e-14
	1.233230814949387e-04
	3.360803639859441e-03
	1.764097182813583e-03
	3.078471829574932e-01

 139	1.390000000000001e+00
	-3.063641541905641e-15
	-8.041951029272340e-17
	-1.621313820005767e-14
	1.270586667746493e-04
	3.364290133884757e-03
	1.797673237783912e-03
	3.078508451425556e-01

 140	1.400000000000001e+00
	-3.069787741381775e-15
	-8.333884300341235e-17
	-1.621914023819701e-14
	1.308876337824841e-04
	3.367431281791649e-03
	1.831281998496369e-03
	3.078545108685874e-01

 141	1.410000000000001e+00
	-3.075935679292187e-15
	-8.637644684184221e-17
	-1.622480611573019e-14
	1.348126350648067e-04
	3.370251199648380e-03
	1.864920140511799e-03
	3.078581797729185e-01

 142	1.420000000000001e+00
	-3.082081484873547e-15
	-8.953760509360685e-17
	-1.623014364520408e-14
	1.388364363758636e-04
	3.372772220948700e-03
	1.898584571133491e-03
	3.078618515181616e-01

 143	1.430000000000001e+00
	-3.088221279870331e-15
	-9.282784988399560e-17
	-1.623516038572685e-14
	1.429619210582187e-04
	3.375014965163110e-03
	1.932272411946649e-03
	3.078655257903196e-01

 144	1.440000000000001e+00
	-3.094351171863409e-15
	-9.625297358068722e-17
	-1.623986364505217e-14
	1.471920945940192e-04
	3.376998407890462e-03
	1.965980982051929e-03
	3.078692022969310e-01

 145	1.450000000000001e+00
	-3.100467247508490e-15
	-9.981904060948541e-17
	-1.624426048156649e-14
	1.515300893362625e-04
	3.378739951864117e-03
	1.999707782004666e-03
	3.078728807653483e-01

 146	1.460000000000001e+00
	-3.106565565684855e-15
	-1.035323996814184e-16
	-1.624835770616960e-14
	1.559791694291629e-04
	3.380255498162783e-03
	2.033450478465374e-03
	3.078765609410421e-01

 147	1.470000000000001e+00
	-3.112642150556612e-15
	-1.073996964265959e-16
	-1.625216188404032e-14
	1.605427359264062e-04
	3.381559517062294e-03
	2.067206889560273e-03
	3.078802425860097e-01

 148	1.480000000000001e+00
	-3.118692984549435e-15
	-1.114278864270239e-16
	-1.625567933627894e-14
	1.652243321158670e-04
	3.382665118045160e-03
	2.100974970945838e-03
	3.078839254772517e-01

 149	1.490000000000001e+00
	-3.124714001247306e-15
	-1.156242486368662e-16
	-1.625891614141889e-14
	1.700276490589960e-04
	3.383584118557216e-03
	2.134752802566683e-03
	3.078876094053394e-01

 150	1.500000000000001e+00
	-3.130701078214560e-15
	-1.199963991744502e-16
	-1.626187813680152e-14
	1.749565313527410e-04
	3.384327111167081e-03
	2.168538576092637e-03
	3.078912941730265e-01

 151	1.510000000000001e+00
	-3.136650029751356e-15
	-1.245523054654839e-16
	-1.626457091980769e-14
	1.800149831213144e-04
	3.384903528842920e-03
	2.202330583017250e-03
	3.078949795939643e-01

 152	1.520000000000001e+00
	-3.142556599591399e-15
	-1.293003007116751e-16
	-1.626699984894161e-14
	1.852071742446485e-04
	3.385321708115083e-03
	2.236127203397978e-03
	3.078986654914632e-01

 153	1.530000000000001e+00
	-3.148416453554018e-15
	-1.342490986528210e-16
	-1.626917004476257e-14