Title: ** sch_path: /home/andylithia/openmpw/project-yatsuhashi-chip1/xschem/gmid_test/nmos_test.sch
Date: Sun Jul 17 22:51:45  2022
Plotname: DC transfer characteristic
Flags: real
No. Variables: 8
No. Points: 181
Variables:
	0	v(v-sweep)	voltage
	1	@m.xm1.msky130_fd_pr__nfet_01v8[cgb]	capacitance
	2	@m.xm1.msky130_fd_pr__nfet_01v8[cgd]	capacitance
	3	@m.xm1.msky130_fd_pr__nfet_01v8[cgs]	capacitance
	4	@m.xm1.msky130_fd_pr__nfet_01v8[gds]	admittance
	5	@m.xm1.msky130_fd_pr__nfet_01v8[gm]	admittance
	6	i(@m.xm1.msky130_fd_pr__nfet_01v8[id])	current
	7	v(@m.xm1.msky130_fd_pr__nfet_01v8[vth])	voltage
Values:
 0	0.000000000000000e+00
	-3.763824284459720e-15
	3.226117465546230e-19
	-2.363087292340945e-17
	4.118212900975166e-14
	9.539255179619630e-13
	2.891396374579290e-14
	7.485838411306154e-01

 1	1.000000000000000e-02
	-3.745894576818170e-15
	3.458945182305193e-19
	-2.522749471237764e-17
	5.685282945222511e-14
	1.326762840505863e-12
	4.021509088289715e-14
	7.485838411306156e-01

 2	2.000000000000000e-02
	-3.728189401065027e-15
	3.706239745512538e-19
	-2.695740111436032e-17
	7.848199645829088e-14
	1.845316118912506e-12
	5.593318539132407e-14
	7.485838411306166e-01

 3	3.000000000000000e-02
	-3.710701693005983e-15
	3.968947401270600e-19
	-2.883220345287072e-17
	1.083333403924445e-13
	2.566531867754710e-12
	7.779451407959604e-14
	7.485838411306180e-01

 4	4.000000000000000e-02
	-3.693424340629835e-15
	4.248127226900397e-19
	-3.086490199118568e-17
	1.495298115456001e-13
	3.569609279574296e-12
	1.081999672703199e-13
	7.485838411306200e-01

 5	5.000000000000000e-02
	-3.676350146536455e-15
	4.544966161341673e-19
	-3.307008461952247e-17
	2.063794157765597e-13
	4.964694318334264e-12
	1.504886713305091e-13
	7.485838411306225e-01

 6	6.000000000000000e-02
	-3.659471787340979e-15
	4.860794369998640e-19
	-3.546414609268598e-17
	2.848244354944716e-13
	6.904969651173250e-12
	2.093045902160762e-13
	7.485838411306261e-01

 7	7.000000000000001e-02
	-3.642781770001108e-15
	5.197100665721709e-19
	-3.806552830817287e-17
	3.930607343059491e-13
	9.603466206956000e-12
	2.911063400013342e-13
	7.485838411306308e-01

 8	8.000000000000000e-02
	-3.626272385027011e-15
	5.555547689623862e-19
	-4.089498205314111e-17
	5.423914512913881e-13
	1.335643938010379e-11
	4.048761428962752e-13
	7.485838411306376e-01

 9	9.000000000000000e-02
	-3.609935656541257e-15
	5.937986543030152e-19
	-4.397585061078693e-17
	7.484036613711490e-13
	1.857587166619751e-11
	5.631056744454943e-13
	7.485838411306469e-01

 10	9.999999999999999e-02
	-3.593763289159855e-15
	6.346470554084313e-19
	-4.733437559949240e-17
	1.032589988647716e-12
	2.583466220589741e-11
	7.831668958349090e-13
	7.485838411306599e-01

 11	1.100000000000000e-01
	-3.577746611666040e-15
	6.783267858326063e-19
	-5.100002541682092e-17
	1.424583141019219e-12
	3.592945107821849e-11
	1.089218125609388e-12
	7.485838411306774e-01

 12	1.200000000000000e-01
	-3.561876517446461e-15
	7.250872470907742e-19
	-5.500584666963440e-17
	1.965234600575928e-12
	4.996795306928217e-11
	1.514854191472484e-12
	7.485838411307023e-01

 13	1.300000000000000e-01
	-3.546143401655952e-15
	7.752013528218108e-19
	-5.938883898634665e-17
	2.710855728635958e-12
	6.949035118048954e-11
	2.106790897660683e-12
	7.485838411307375e-01

 14	1.400000000000000e-01
	-3.530537095072740e-15
	8.289662377872902e-19
	-6.419035362215533e-17
	3.739059209843836e-12
	9.663801407045588e-11
	2.929987102935209e-12
	7.485838411307857e-01

 15	1.500000000000000e-01
	-3.515046794601923e-15
	8.867037197741511e-19
	-6.945651627704273e-17
	5.156803251109734e-12
	1.343879551215436e-10
	4.074764710202235e-12
	7.485838411308524e-01

 16	1.600000000000000e-01
	-3.499660990382505e-15
	9.487604826213229e-19
	-7.523867454123070e-17
	7.111466967586077e-12
	1.868785988578158e-10
	5.666704841934685e-12
	7.485838411309460e-01

 17	1.700000000000000e-01
	-3.484367389454191e-15
	1.015507948621622e-18
	-8.159387035037208e-17
	9.806095798006373e-12
	2.598623300105324e-10
	7.880400989917360e-12
	7.485838411310760e-01

 18	1.800000000000000e-01
	-3.469152835948282e-15
	1.087341808292575e-18
	-8.858533775232917e-17
	1.352038188383590e-11
	3.613340304257233e-10
	1.095856960968603e-11
	7.485838411312565e-01

 19	1.900000000000000e-01
	-3.454003227787413e-15
	1.164681174719693e-18
	-9.628302612717762e-17
	1.863952887980876e-11
	5.024038188018259e-10
	1.523860059162979e-11
	7.485838411315077e-01

 20	2.000000000000000e-01
	-3.438903429919568e-15
	1.247967328023415e-18
	-1.047641487161030e-16
	2.569395199755484e-11
	6.985085066587846e-10
	2.118943659175003e-11
	7.485838411318566e-01

 21	2.100000000000000e-01
	-3.423837184183008e-15
	1.337662012585534e-18
	-1.141137558409438e-16
	3.541386175595596e-11
	9.710926301155422e-10
	2.946278730234527e-11
	7.485838411323421e-01

 22	2.200000000000001e-01
	-3.408787016014593e-15
	1.434245245051047e-18
	-1.244253314539519e-16
	4.880428212421471e-11
	1.349940091934592e-09
	4.096423077984914e-11
	7.485838411330167e-01

 23	2.300000000000001e-01
	-3.393734138390287e-15
	1.538212584373652e-18
	-1.358014105497399e-16
	6.724810740438257e-11
	1.876406618731878e-09
	5.695189171271688e-11
	7.485838411339546e-01

 24	2.400000000000001e-01
	-3.378658353643062e-15
	1.650071805966537e-18
	-1.483542133858113e-16
	9.264760627040362e-11
	2.607898441041799e-09
	7.917333934259976e-11
	7.485838411352580e-01

 25	2.500000000000001e-01
	-3.363537954159775e-15
	1.770338910207515e-18
	-1.622062902718097e-16
	1.276186045792520e-10
	3.624073384360339e-09
	1.100554212986019e-10
	7.485838411370698e-01

 26	2.600000000000001e-01
	-3.348349623436521e-15
	1.899533381265882e-18
	-1.774911677746765e-16
	1.757567825879361e-10
	5.035419801843061e-09
	1.529673608752532e-10
	7.485838411395871e-01

 27	2.700000000000001e-01
	-3.333068339590577e-15
	2.038172595983912e-18
	-1.943539834265899e-16
	2.420025919589418e-10
	6.995113773128475e-09
	2.125851611626059e-10
	7.485838411430842e-01

 28	2.800000000000001e-01
	-3.317667284203232e-15
	2.186765265346764e-18
	-2.129520913119101e-16
	3.331408804430202e-10
	9.715388770391301e-09
	2.953959471735468e-10
	7.485838411479424e-01

 29	2.900000000000001e-01
	-3.302117760312385e-15
	2.345803774437779e-18
	-2.334556151767179e-16
	4.584842658303990e-10
	1.349010495971798e-08
	4.103953696657879e-10
	7.485838411546883e-01

 30	3.000000000000001e-01
	-3.286389124488967e-15
	2.515755272823489e-18
	-2.560479189265945e-16
	6.308067568271765e-10
	1.872581716289198e-08
	5.700509735226974e-10
	7.485838411640545e-01

 31	3.100000000000001e-01
	-3.270448739208062e-15
	2.697051358775912e-18
	-2.809259566010172e-16
	8.676175551426110e-10
	2.598446235531301e-08
	7.916313333524312e-10
	7.485838411770525e-01

 32	3.200000000000001e-01
	-3.254261953138202e-15
	2.890076200955046e-18
	-3.083004552751553e-16
	1.192896302405859e-09
	3.604188401577910e-08
	1.099037190254034e-09
	7.485838411950859e-01

 33	3.300000000000001e-01
	-3.237792118475329e-15
	3.095152954020736e-18
	-3.383958751029378e-16
	1.639452700091004e-09
	4.996786138032442e-08
	1.525319917903977e-09
	7.485838412200928e-01

 34	3.400000000000001e-01
	-3.221000655969196e-15
	3.312528354428291e-18
	-3.714500812936938e-16
	2.252128501317583e-09
	6.923521184162526e-08
	2.116138409501619e-09
	7.485838412547517e-01

 35	3.500000000000001e-01
	-3.203847179727414e-15
	3.542355433912277e-18
	-4.077136538096529e-16
	3.092132133425891e-09
	9.586799267552787e-08
	2.934492936741236e-09
	7.485838413027587e-01

 36	3.600000000000002e-01
	-3.186289695096942e-15
	3.784674365308983e-18
	-4.474487528008743e-16
	4.242890196802689e-09
	1.326419582757541e-07
	4.067189836645964e-09
	7.485838413692056e-01

 37	3.700000000000002e-01
	-3.168284883737752e-15
	4.039391562257405e-18
	-4.909274523117639e-16
	5.817921042730183e-09
	1.833543362420376e-07
	5.633641294730526e-09
	7.485838414610976e-01

 38	3.800000000000002e-01
	-3.149788490203441e-15
	4.306257293574161e-18
	-5.384294528898105e-16
	7.971389304473738e-09
	2.531847380146713e-07
	7.797798172093912e-09
	7.485838415880532e-01

 39	3.900000000000002e-01
	-3.130755823680756e-15
	4.584842245265236e-18
	-5.902390868976361e-16
	1.091219240898777e-08
	3.491746017179884e-07
	1.078425923846934e-08
	7.485838417632462e-01

 40	4.000000000000002e-01
	-3.111142386748655e-15
	4.874513665692417e-18
	-6.466415401973066e-16
	1.492266563469687e-08
	4.808588054857745e-07
	1.489990493113701e-08
	7.485838420046810e-01

 41	4.100000000000002e-01
	-3.090904639835428e-15
	5.174411955687818e-18
	-7.079182320597933e-16
	2.038327375132883e-08
	6.610895592976348e-07
	2.056277256596555e-08
	7.485838423368794e-01

 42	4.200000000000002e-01
	-3.070000905255836e-15
	5.483428803596125e-18
	-7.743413230666723e-16
	2.780498256299506e-08
	9.070985585248837e-07
	2.834032134523003e-08
	7.485838427931302e-01

 43	4.300000000000002e-01
	-3.048392408157801e-15
	5.800188197676297e-18
	-8.461673593676651e-16
	3.787136265919125e-08
	1.241847286471506e-06
	3.899971723386456e-08
	7.485838434184383e-01

 44	4.400000000000002e-01
	-3.026044443391653e-15
	6.123031851414940e-18
	-9.236301111128176e-16
	5.149284777950930e-08
	1.695715207213444e-06
	5.357327033518230e-08
	7.485838442733608e-01

 45	4.500000000000002e-01
	-3.002927647413245e-15
	6.450010722311772e-18
	-1.006932722270815e-15
	6.987591091275050e-08
	2.308568538973356e-06
	7.344262664213165e-08
	7.485838454389491e-01

 46	4.600000000000002e-01
	-2.979019343258417e-15
	6.778884359556163e-18
	-1.096239356063845e-15
	9.461016831656034e-08
	3.132234830462576e-06
	1.004456657652246e-07
	7.485838470230175e-01

 47	4.700000000000003e-01
	-2.954304915054287e-15
	7.107129748652384e-18
	-1.191666591003573e-15
	1.277764822205857e-07
	4.233376991237065e-06
	1.370101636338356e-07
	7.485838491679863e-01

 48	4.800000000000003e-01
	-2.928779157397907e-15
	7.431961103811022e-18
	-1.293274891522477e-15
	1.720788843495176e-07
	5.696711928760304e-06
	1.863179877208845e-07
	7.485838520605113e-01

 49	4.900000000000003e-01
	-2.902447535384392e-15
	7.750361673874624e-18
	-1.401060537623512e-15
	2.310024379439354e-07
	7.628453292723499e-06
	2.525027285399219e-07
	7.485838559430806e-01

 50	5.000000000000002e-01
	-2.875327284378554e-15
	8.059128071923548e-18
	-1.514948442153665e-15
	3.089978430610009e-07
	1.015977973462734e-05
	3.408820818112644e-07
	7.485838611276439e-01

 51	5.100000000000002e-01
	-2.847448276052049e-15
	8.354926929553429e-18
	-1.634786304562664e-15
	4.116915443739722e-07
	1.345005162619346e-05
	4.582239097189773e-07
	7.485838680112210e-01

 52	5.200000000000002e-01
	-2.818853579815901e-15
	8.634362853565134e-18
	-1.760340539684203e-15
	5.461172789787240e-07
	1.768944105096239e-05
	6.130418197524912e-07
	7.485838770932438e-01

 53	5.300000000000002e-01
	-2.789599657246757e-15
	8.894055786873986e-18
	-1.891294374685904e-15
	7.209615061655294e-07
	2.310062975578661e-05
	8.159126434798172e-07
	7.485838889941770e-01

 54	5.400000000000003e-01
	-2.759756141563484e-15
	9.130725025998324e-18
	-2.027248425603183e-15
	9.468113005804996e-07
	2.993929573470999e-05
	1.079804999672974e-06
	7.485839044747938e-01

 55	5.500000000000003e-01
	-2.729405174117975e-15
	9.341276413435931e-18
	-2.167723949493564e-15
	1.236389605594585e-06
	3.849326784349033e-05
	1.420406046538305e-06
	7.485839244553456e-01

 56	5.600000000000003e-01
	-2.698640293980932e-15
	9.522888692158350e-18
	-2.312168826123502e-15
	1.604759957948997e-06
	4.908046955114519e-05
	1.856433473045282e-06
	7.485839500338634e-01

 57	5.700000000000003e-01
	-2.667564903166723e-15
	9.673094755023753e-18
	-2.459966164965377e-15
	2.069481654475013e-06
	6.204605008659353e-05
	2.409922375344736e-06
	7.485839825029870e-01

 58	5.800000000000003e-01
	-2.636290356549435e-15
	9.789853592009172e-18
	-2.610445272674471e-15
	2.650697344300151e-06
	7.775932961401150e-05
	3.106481869638759e-06
	7.485840233650194e-01

 59	5.900000000000003e-01
	-2.604933749604640e-15
	9.871609145947302e-18
	-2.762894567902733e-15
	3.371138165607333e-06
	9.661126401247468e-05
	3.975523116525752e-06
	7.485840743453042e-01

 60	6.000000000000003e-01
	-2.573615496447943e-15
	9.917333007317433e-18
	-2.916575908404929e-15
	4.256036043548052e-06
	1.190129844755986e-04
	5.050466944760673e-06
	7.485841374044071e-01

 61	6.100000000000003e-01
	-2.542456803372859e-15
	9.926548848154182e-18
	-3.070739711492380e-15
	5.332937204719101e-06
	1.453955685226476e-04
	6.368943012268990e-06
	7.485842147497989e-01

 62	6.200000000000003e-01
	-2.511577148068807e-15
	9.899337622851409e-18
	-3.224640210503096e-15
	6.631413690193330e-06
	1.762106160748770e-04
	7.972991196389744e-06
	7.485843088476729e-01

 63	6.300000000000003e-01
	-2.481091871630530e-15
	9.836323741413587e-18
	-3.377550199585540e-15
	8.182669478807209e-06
	2.119305724740462e-04
	9.909268453052930e-06
	7.485844224350806e-01

 64	6.400000000000003e-01
	-2.451109979927608e-15
	9.738643538410227e-18
	-3.528774674044960e-15
	1.001903476275060e-05
	2.530472242579365e-04
	1.222925105994726e-05
	7.485845585317967e-01

 65	6.500000000000004e-01
	-2.421732234214003e-15
	9.607898320709775e-18
	-3.677662866488303e-15
	1.217333751120855e-05
	3.000665341286241e-04
	1.498940486486587e-05
	7.485847204503109e-01

 66	6.600000000000004e-01
	-2.393049589888994e-15
	9.446095005103906e-18
	-3.823618299354814e-15
	1.467813865383071e-05
	3.534980597496635e-04
	1.825127792867096e-05
	7.485849118012594e-01

 67	6.700000000000004e-01
	-2.365142019202802e-15
	9.255577810274030e-18
	-3.966106609667534e-15
	1.756481955785513e-05
	4.138376317127717e-04
	2.208145428552511e-05
	7.485851364907163e-01

 68	6.800000000000004e-01
	-2.338077730547632e-15
	9.038954636132713e-18
	-4.104661039394823e-15
	2.086252097214175e-05
	4.815427165684201e-04
	2.655129783441069e-05
	7.485853987051667e-01

 69	6.900000000000004e-01
	-2.311912775643694e-15
	8.799021667284080e-18
	-4.238885613419434e-15
	2.459695257059109e-05
	5.570009028689391e-04
	3.173641454843414e-05
	7.485857028799541e-01

 70	7.000000000000004e-01
	-2.286691017844572e-15
	8.538689419354383e-18
	-4.368456137949875e-15
	2.878912033700253e-05
	6.404931431644153e-04
	3.771577148284565e-05
	7.485860536475943e-01

 71	7.100000000000004e-01
	-2.262444420850288e-15
	8.260912965088134e-18
	-4.493119239458987e-15
	3.345405099833452e-05
	7.321546476443731e-04
	4.457043376787194e-05
	7.485864557636738e-01

 72	7.200000000000004e-01
	-2.239193607705562e-15
	7.968628494870871e-18
	-4.612689725195818e-15
	3.859962162285021e-05
	8.319374787485063e-04
	5.238191573034341e-05
	7.485869140101074e-01

 73	7.300000000000004e-01
	-2.216948634982583e-15
	7.664697744859774e-18
	-4.727046581098684e-15
	4.422562009024470e-05
	9.395796939886514e-04
	6.123018721147307e-05
	7.485874330781669e-01

 74	7.400000000000004e-01
	-2.195709926045602e-15
	7.351861217962087e-18
	-4.836127933881423e-15
	5.032316090585610e-05
	1.054586044227824e-03
	7.119142605443901e-05
	7.485880174366145e-01

 75	7.500000000000004e-01
	-2.175469309571650e-15
	7.032700569263505e-18
	-4.939925295029313e-15
	5.687455655566088e-05
	1.176224523003325e-03
	8.233565497823002e-05
	7.485886711930556e-01

 76	7.600000000000005e-01
	-2.156211114244082e-15
	6.709610055556873e-18
	-5.038477380078376e-15
	6.385369847459507e-05
	1.303541406287355e-03
	9.472443636981796e-05
	7.485893979586837e-01

 77	7.700000000000005e-01
	-2.137913276917062e-15
	6.384776572945282e-18
	-5.131863761672213e-15
	7.122694100201172e-05
	1.435394999915790e-03
	1.084088131440563e-04
	7.485902007274695e-01

 78	7.800000000000005e-01
	-2.120548428812266e-15
	6.060167530667723e-18
	-5.220198573978813e-15
	7.895441835983655e-05
	1.570505564581139e-03
	1.234276721166613e-04
	7.485910817801384e-01

 79	7.900000000000005e-01
	-2.104084931814517e-15
	5.737525628520239e-18
	-5.303624442944009e-15
	8.699167200103307e-05
	1.707516419131757e-03
	1.398066680448237e-04
	7.485920426210418e-01

 80	8.000000000000005e-01
	-2.088487844183460e-15
	5.418369508949948e-18
	-5.382306774594887e-15
	9.529143426965627e-05
	1.845059612005499e-03
	1.575577874368664e-04
	7.485930839525736e-01

 81	8.100000000000005e-01
	-2.073719801640361e-15
	5.103999229209266e-18
	-5.456428494391643e-15
	1.038054090678906e-04
	1.981819158778309e-03
	1.766795620762637e-04
	7.485942056877020e-01

 82	8.200000000000005e-01
	-2.059741805600556e-15
	4.795505528747458e-18
	-5.526185295893656e-15
	1.124859093151587e-04
	2.116585695515071e-03
	1.971578755583033e-04
	7.485954069973008e-01

 83	8.300000000000005e-01
	-2.046513915192091e-15
	4.493781937309430e-18
	-5.591781427530910e-15
	1.212872472603475e-04
	2.248298193538741e-03
	2.189672531514923e-04
	7.485966863858361e-01

 84	8.400000000000005e-01
	-2.033995843605891e-15
	4.199538866317739e-18
	-5.653426022302004e-15
	1.301668175524083e-04
	2.376070625446863e-03
	2.420724929929830e-04
	7.485980417870823e-01

 85	8.500000000000005e-01
	-2.022147462303828e-15
	3.913318938186583e-18
	-5.711329956604147e-15
	1.390858553117985e-04
	2.499203647468360e-03
	2.664304868162086e-04
	7.485994706709547e-01

 86	8.600000000000005e-01
	-2.010929218752305e-15
	3.635512925637070e-18
	-5.765703210713890e-15
	1.480098858312435e-04
	2.617183078074146e-03
	2.919920882658872e-04
	7.486009701531342e-01

 87	8.700000000000006e-01
	-2.000302474761647e-15
	3.366375788478685e-18
	-5.816752694082313e-15
	1.569089058969022e-04
	2.729668013140954e-03
	3.187039106173077e-04
	7.486025371005509e-01

 88	8.800000000000006e-01
	-1.990229773316822e-15
	3.106042403486237e-18
	-5.864680492905324e-15
	1.657573489601442e-04
	2.836471820160743e-03
	3.465099666781114e-04
	7.486041682276012e-01

 89	8.900000000000006e-01
	-1.980675042105178e-15
	2.854542680609370e-18
	-5.909682494682646e-15
	1.745338893656186e-04
	2.937539125783977e-03
	3.753530957970333e-04
	7.486058601798766e-01

 90	9.000000000000006e-01
	-1.971603741895619e-15
	2.611815844035508e-18
	-5.951947344026957e-15
	1.832211372744032e-04
	3.032921438165726e-03
	4.051761518537389e-04
	7.486076096038654e-01

 91	9.100000000000006e-01
	-1.962982967602710e-15
	2.377723729030701e-18
	-5.991655685231915e-15
	1.918052685412014e-04
	3.122753411005892e-03
	4.359229493604109e-04
	7.486094132024610e-01

 92	9.200000000000006e-01
	-1.954781509364261e-15
	2.152063005305954e-18
	-6.028979649543680e-15
	2.002756248538830e-04
	3.207231103590248e-03
	4.675389815233410e-04
	7.486112677770929e-01

 93	9.300000000000006e-01
	-1.946969880342624e-15
	1.934576285778146e-18
	-6.064082548282660e-15
	2.086243104973079e-04
	3.286593012887632e-03
	4.999719346244421e-04
	7.486131702579000e-01

 94	9.400000000000006e-01
	-1.939520317283165e-15
	1.724962117226684e-18
	-6.097118736595297e-15
	2.168458041002269e-04
	3.361104194889636e-03
	5.331720283967166e-04
	7.486151177237016e-01

 95	9.500000000000006e-01
	-1.932406759169923e-15
	1.522883877841289e-18
	-6.128233616423657e-15
	2.249365971004887e-04
	3.431043462694518e-03
	5.670922134527001e-04
	7.486171074135783e-01

 96	9.600000000000006e-01
	-1.925604808638548e-15
	1.327977627410160e-18
	-6.157563751073958e-15
	2.328948655123456e-04
	3.496693436393091e-03
	6.016882555253504e-04
	7.486191367318086e-01

 97	9.700000000000006e-01
	-1.919091680160910e-15
	1.139858970237062e-18
	-6.185237067412093e-15
	2.407201777899164e-04
	3.558333102268698e-03
	6.369187333608752e-04
	7.486212032477477e-01

 98	9.800000000000006e-01
	-1.912846138417072e-15
	9.581289999990769e-19
	-6.211373125128707e-15
	2.484132389447203e-04
	3.616232491340720e-03
	6.727449733853587e-04
	7.486233046919867e-01

 99	9.900000000000007e-01
	-1.906848429726665e-15
	7.823794007711810e-19
	-6.236083435644674e-15
	2.559756693564319e-04
	3.670649087147523e-03
	7.091309403335544e-04
	7.486254389499365e-01

 100	1.000000000000001e+00
	-1.901080208925286e-15
	6.121967802471703e-19
	-6.259471816047070e-15
	2.634098156904460e-04
	3.721825601392416e-03
	7.460430992546732e-04
	7.486276040537285e-01

 101	1.010000000000001e+00
	-1.895524463642931e-15
	4.471663105891609e-19
	-6.281634765948554e-15
	2.707185908106645e-04
	3.769988799868069e-03
	7.834502609106097e-04
	7.486297981731439e-01

 102	1.020000000000001e+00
	-1.890165437568111e-15
	2.868747499796192e-19
	-6.302661857357295e-15
	2.779053393957959e-04
	3.815349110400922e-03
	8.213234196556074e-04
	7.486320196060970e-01

 103	1.030000000000001e+00
	-1.884988553959845e-15
	1.309129143656077e-19
	-6.322636129547306e-15
	2.849737260133120e-04
	3.858100793346344e-03
	8.596355904546832e-04
	7.486342667690734e-01

 104	1.040000000000001e+00
	-1.879980340395597e-15
	-2.112233550700852e-20
	-6.341634482551825e-15
	2.919276425893488e-04
	3.898422499930509e-03
	8.983616497361389e-04
	7.486365381877924e-01

 105	1.050000000000001e+00
	-1.875128355511925e-15
	-1.696265315380847e-19
	-6.359728064290163e-15
	2.987711324731515e-04
	3.936478082792174e-03
	9.374781832310338e-04
	7.486388324882763e-01

 106	1.060000000000001e+00
	-1.870421118301206e-15
	-3.149864050429546e-19
	-6.376982647507527e-15
	3.055083285886438e-04
	3.972417555916165e-03
	9.769633427690297e-04
	7.486411483884489e-01

 107	1.070000000000001e+00
	-1.865848040367632e-15
	-4.575790128092495e-19
	-6.393458993683009e-15
	3.121434034656369e-04
	4.006378127968398e-03
	1.016796713113974e-03
	7.486434846903218e-01

 108	1.080000000000001e+00
	-1.861399361414364e-15
	-5.977711373992457e-19
	-6.409213201867877e-15
	3.186805292318177e-04
	4.038485254417262e-03
	1.056959189276395e-03
	7.486458402727942e-01

 109	1.090000000000001e+00
	-1.857066088127268e-15
	-7.359189214444792e-19
	-6.424297041077639e-15
	3.251238459141432e-04
	4.068853670502141e-03
	1.097432864282902e-03
	7.486482140850702e-01

 110	1.100000000000001e+00
	-1.852839936535226e-15
	-8.723677001983359e-19
	-6.438758265397222e-15
	3.314774366398366e-04
	4.097588379862721e-03
	1.138200927071619e-03
	7.486506051406643e-01

 111	1.110000000000001e+00
	-1.848713277859572e-15
	-1.007452000807024e-18
	-6.452640911388625e-15
	3.377453085411364e-04
	4.124785583204276e-03
	1.179247569982161e-03
	7.486530125119745e-01

 112	1.120000000000001e+00
	-1.844679087812539e-15
	-1.141495680632546e-18
	-6.465985577730354e-15
	3.439313783549209e-04
	4.150533538395651e-03
	1.220557905190614e-03
	7.486554353253808e-01

 113	1.130000000000001e+00
	-1.840730899264631e-15
	-1.274812180484792e-18
	-6.478829687283127e-15
	3.500394618698100e-04
	4.174913348432785e-03
	1.262117889381188e-03
	7.486578727568226e-01

 114	1.140000000000001e+00
	-1.836862758170870e-15
	-1.407704871813294e-18
	-6.491207731978703e-15
	3.560732665117084e-04
	4.197999677211421e-03
	1.303914255929779e-03
	7.486603240278207e-01

 115	1.150000000000001e+00
	-1.833069182624569e-15
	-1.540467479779362e-18
	-6.503151501079867e-15
	3.620363864764908e-04
	4.219861395410125e-03
	1.345934453887154e-03
	7.486627884018966e-01

 116	1.160000000000001e+00
	-1.829345124892662e-15
	-1.673384566694232e-18
	-6.514690293468197e-15
	3.679322999181554e-04
	4.240562160284417e-03
	1.388166593080843e-03
	7.486652651813505e-01

 117	1.170000000000001e+00
	-1.825685936277480e-15
	-1.806732062585672e-18
	-6.525851114690998e-15
	3.737643677847393e-04
	4.260160934045650e-03
	1.430599394697856e-03
	7.486677537043628e-01

 118	1.180000000000001e+00
	-1.822087334645286e-15
	-1.940777831678111e-18
	-6.536658859545369e-15
	3.795358339647712e-04
	4.278712445922128e-03
	1.473222146759639e-03
	7.486702533423815e-01

 119	1.190000000000001e+00
	-1.818545374460474e-15
	-2.075782265339665e-18
	-6.547136481002531e-15
	3.852498264660570e-04
	4.296267603110067e-03
	1.516024663952451e-03
	7.486727634977630e-01

 120	1.200000000000001e+00
	-1.815056419165780e-15
	-2.211998893612834e-18
	-6.557305146282995e-15
	3.909093593978778e-04
	4.312873855719723e-03
	1.558997251328153e-03
	7.486752836016445e-01

 121	1.210000000000001e+00
	-1.811617115752290e-15
	-2.349675008802883e-18
	-6.567184380887274e-15
	3.965173355687534e-04
	4.328575520582492e-03
	1.602130671440347e-03
	7.486778131120141e-01

 122	1.220000000000001e+00
	-1.808224371367869e-15
	-2.489052295785859e-18
	-6.576792201370798e-15
	4.020765495460797e-04
	4.343414068462390e-03
	1.645416114527824e-03
	7.486803515119616e-01

 123	1.230000000000001e+00
	-1.804875331818658e-15
	-2.630367464722304e-18
	-6.586145237627900e-15
	4.075896910523455e-04
	4.357428378849361e-03
	1.688845171401005e-03
	7.486828983080863e-01

 124	1.240000000000001e+00
	-1.801567361825022e-15
	-2.773852882754017e-18
	-6.595258845420414e-15
	4.130593485961490e-04
	4.370654966129811e-03
	1.732409808726823e-03
	7.486854530290481e-01

 125	1.250000000000001e+00
	-1.798298026900466e-15
	-2.919737202025724e-18
	-6.604147209853497e-15
	4.184880132557319e-04
	4.383128180549999e-03
	1.776102346443529e-03
	7.486880152242422e-01

 126	1.260000000000001e+00
	-1.795065076729459e-15
	-3.068245982031706e-18
	-6.612823440465658e-15
	4.238780825488617e-04
	4.394880387022854e-03
	1.819915437069232e-03
	7.486905844625835e-01

 127	1.270000000000001e+00
	-1.791866429927662e-15
	-3.219602304849189e-18
	-6.621299658563258e-15
	4.292318643361982e-04
	4.405942124486128e-03
	1.863842046696659e-03
	7.486931603313910e-01

 128	1.280000000000001e+00
	-1.788700160075440e-15
	-3.374027382300998e-18
	-6.629587077392328e-15
	4.345515807162505e-04
	4.416342248203288e-03
	1.907875437492111e-03
	7.486957424353629e-01

 129	1.290000000000001e+00
	-1.785564482922840e-15
	-3.531741154499673e-18
	-6.637696075703586e-15
	4.398393718790635e-04
	4.426108057110573e-03
	1.952009151539031e-03
	7.486983303956268e-01

 130	1.300000000000001e+00
	-1.782457744671298e-15
	-3.692962879569985e-18
	-6.645636265229882e-15
	4.450972998931732e-04
	4.435265408053882e-03
	1.996236995886226e-03
	7.487009238488619e-01

 131	1.310000000000001e+00
	-1.779378411244124e-15
	-3.857911714638020e-18
	-6.653416552560128e-15
	4.503273524064595e-04
	4.443838818527336e-03
	2.040553028678058e-03
	7.487035224464865e-01

 132	1.320000000000001e+00
	-1.776325058464270e-15
	-4.026807288424634e-18
	-6.661045195859541e-15
	4.555314462464823e-04
	4.451851559319422e-03
	2.084951546258985e-03
	7.487061258538991e-01

 133	1.330000000000001e+00
	-1.773296363064036e-15
	-4.199870265982513e-18
	-6.668529856853571e-15
	4.607114309099293e-04
	4.459325738290992e-03
	2.129427071157897e-03
	7.487087337497749e-01

 134	1.340000000000001e+00
	-1.770291094457151e-15
	-4.377322906293836e-18
	-6.675877648461952e-15
	4.658690919340842e-04
	4.466282376349956e-03
	2.173974340869122e-03
	7.487113458254072e-01

 135	1.350000000000001e+00
	-1.767308107209126e-15
	-4.559389613585420e-18
	-6.683095178440054e-15
	4.710061541458827e-04
	4.472741476547940e-03
	2.218588297356956e-03
	7.487139617840902e-01

 136	1.360000000000001e+00
	-1.764346334146841e-15
	-4.746297483338151e-18
	-6.690188589357329e-15
	4.761242847862388e-04
	4.478722087102617e-03
	2.263264077219062e-03
	7.487165813405425e-01

 137	1.370000000000001e+00
	-1.761404780053079e-15
	-4.938276844069414e-18
	-6.697163595216761e-15
	4.812250965090283e-04
	4.484242359043558e-03
	2.307997002451700e-03
	7.487192042203653e-01

 138	1.380000000000001e+00
	-1.758482515896163e-15
	-5.135561796046182e-18
	-6.704025514995154e-15
	4.863101502554671e-04
	4.489319599087888e-03
	2.352782571766178e-03
	7.487218301595323e-01

 139	1.390000000000001e+00
	-1.755578673548909e-15
	-5.338390748156145e-18
	-6.710779303361836e-15
	4.913809580056570e-04
	4.493970318272480e-03
	2.397616452411573e-03
	7.487244589039097e-01

 140	1.400000000000001e+00
	-1.752692440954962e-15
	-5.547006954220099e-18
	-6.717429578812147e-15
	4.964389854098914e-04
	4.498210276800803e-03
	2.442494472463696e-03
	7.487270902088039e-01

 141	1.410000000000001e+00
	-1.749823057704039e-15
	-5.761659050077045e-18
	-6.723980649433121e-15
	5.014856543029257e-04
	4.502054525503315e-03
	2.487412613544502e-03
	7.487297238385331e-01

 142	1.420000000000001e+00
	-1.746969810980861e-15
	-5.982601592812118e-18
	-6.730436536500524e-15
	5.065223451048771e-04
	4.505517444259065e-03
	2.532367003939950e-03
	7.487323595660268e-01

 143	1.430000000000001e+00
	-1.744132031855551e-15
	-6.210095603534620e-18
	-6.736800996090085e-15
	5.115503991127232e-04
	4.508612777682141e-03
	2.577353912087504e-03
	7.487349971724372e-01

 144	1.440000000000001e+00
	-1.741309091886014e-15
	-6.444409115137814e-18
	-6.743077538870293e-15
	5.165711206865992e-04
	4.511353668338517e-03
	2.622369740407244e-03
	7.487376364467840e-01

 145	1.450000000000001e+00
	-1.738500400005345e-15
	-6.685817726506911e-18
	-6.749269448230165e-15
	5.215857793352282e-04
	4.513752687726169e-03
	2.667411019453234e-03
	7.487402771856072e-01

 146	1.460000000000001e+00
	-1.735705399669592e-15
	-6.934605164660210e-18
	-6.755379796882370e-15
	5.265956117048623e-04
	4.515821865223039e-03
	2.712474402363770e-03
	7.487429191926415e-01

 147	1.470000000000001e+00
	-1.732923566243413e-15
	-7.191063856335136e-18
	-6.761411462070076e-15
	5.316018234761332e-04
	4.517572715183056e-03
	2.757556659591122e-03
	7.487455622785080e-01

 148	1.480000000000001e+00
	-1.730154404603018e-15
	-7.455495510554817e-18
	-6.767367139495112e-15
	5.366055911731800e-04
	4.519016262339417e-03
	2.802654673893155e-03
	7.487482062604198e-01

 149	1.490000000000001e+00
	-1.727397446937635e-15
	-7.728211713735767e-18
	-6.773249356074700e-15
	5.416080638893295e-04
	4.520163065656168e-03
	2.847765435570595e-03
	7.487508509619025e-01

 150	1.500000000000001e+00
	-1.724652250732380e-15
	-8.009534538918315e-18
	-6.779060481625018e-15
	5.466103649335403e-04
	4.521023240753379e-03
	2.892886037935074e-03
	7.487534962125286e-01

 151	1.510000000000001e+00
	-1.721918396916845e-15
	-8.299797170734181e-18
	-6.784802739561163e-15
	5.516135934016822e-04
	4.521606481017606e-03
	2.938013672994335e-03
	7.487561418476620e-01

 152	1.520000000000001e+00
	-1.719195488165151e-15
	-8.599344547746878e-18
	-6.790478216695502e-15
	5.566188256766020e-04
	4.521922077497543e-03
	2.983145627341884e-03
	7.487587877082210e-01

 153	1.530000000000001e+00
	-1.716483147334461e-15
	-8.908534023839187e-18
	-6.796088872209056e-15
	5.616271168608018e-04
	4.521978937674473e-03
	3.028279278239536e-03
	7.487614336404441e-01

 154	1.540000000000001e+00