Title: ** sch_path: /home/andylithia/openmpw/project-yatsuhashi-chip1/xschem/gmid_test/nmos_test.sch
Date: Tue Jul 19 23:15:45  2022
Plotname: DC transfer characteristic
Flags: real
No. Variables: 8
No. Points: 181
Variables:
	0	v(v-sweep)	voltage
	1	@m.xm1.msky130_fd_pr__nfet_01v8[cgb]	capacitance
	2	@m.xm1.msky130_fd_pr__nfet_01v8[cgd]	capacitance
	3	@m.xm1.msky130_fd_pr__nfet_01v8[cgs]	capacitance
	4	@m.xm1.msky130_fd_pr__nfet_01v8[gds]	admittance
	5	@m.xm1.msky130_fd_pr__nfet_01v8[gm]	admittance
	6	i(@m.xm1.msky130_fd_pr__nfet_01v8[id])	current
	7	v(@m.xm1.msky130_fd_pr__nfet_01v8[vth])	voltage
Values:
 0	0.000000000000000e+00
	-1.673582522637577e-14
	-1.480361725081704e-18
	-3.500382450720978e-14
	3.404746730525927e-08
	1.271821043431010e-06
	1.716746559864981e-07
	1.580477190329473e-01

 1	1.000000000000000e-02
	-1.655919632844928e-14
	-1.513597489846262e-18
	-3.542958615247071e-14
	3.652936561556997e-08
	1.369116127740120e-06
	1.848732795025446e-07
	1.580477200220074e-01

 2	2.000000000000000e-02
	-1.638513605393831e-14
	-1.547524550918811e-18
	-3.585411370885851e-14
	3.918198399240683e-08
	1.473970804443075e-06
	1.990821574485129e-07
	1.580477210878715e-01

 3	3.000000000000000e-02
	-1.621367236147312e-14
	-1.582155756817719e-18
	-3.627727676255301e-14
	4.201608439514537e-08
	1.587002934409117e-06
	2.143799312901983e-07
	1.580477222366771e-01

 4	4.000000000000000e-02
	-1.604483199888546e-14
	-1.617504172993860e-18
	-3.669894631501924e-14
	4.504301964928248e-08
	1.708885149826955e-06
	2.308516907978995e-07
	1.580477234750840e-01

 5	5.000000000000000e-02
	-1.587864045885784e-14
	-1.653583085957068e-18
	-3.711899492064270e-14
	4.827475879689647e-08
	1.840350047461386e-06
	2.485895473314510e-07
	1.580477248103305e-01

 6	6.000000000000000e-02
	-1.571512193757103e-14
	-1.690406007517616e-18
	-3.753729682096298e-14
	5.172391302577576e-08
	1.982195869083392e-06
	2.676932614610340e-07
	1.580477262502806e-01

 7	7.000000000000001e-02
	-1.555429929640784e-14
	-1.727986679145746e-18
	-3.795372807522042e-14
	5.540376215747098e-08
	2.135292708373770e-06
	2.882709299902121e-07
	1.580477278034863e-01

 8	8.000000000000000e-02
	-1.539619402675980e-14
	-1.766339076452909e-18
	-3.836816668694679e-14
	5.932828167221570e-08
	2.300589285509254e-06
	3.104397378502857e-07
	1.580477294792518e-01

 9	9.000000000000000e-02
	-1.524082621797688e-14
	-1.805477413798215e-18
	-3.878049272634178e-14
	6.351217024626181e-08
	2.479120332437897e-06
	3.343267807561793e-07
	1.580477312877159e-01

 10	9.999999999999999e-02
	-1.508821452848842e-14
	-1.845416149023349e-18
	-3.919058844819619e-14
	6.797087777472968e-08
	2.672014633497335e-06
	3.600699649525615e-07
	1.580477332399153e-01

 11	1.100000000000000e-01
	-1.493837616011661e-14
	-1.886169988319903e-18
	-3.959833840513192e-14
	7.272063385053626e-08
	2.880503767476943e-06
	3.878189908326696e-07
	1.580477353478918e-01

 12	1.200000000000000e-01
	-1.479132683559226e-14
	-1.927753891232929e-18
	-4.000362955595291e-14
	7.777847666738073e-08
	3.105931598424537e-06
	4.177364276797451e-07
	1.580477376247673e-01

 13	1.300000000000000e-01
	-1.464708077927539e-14
	-1.970183075804145e-18
	-4.040635136890991e-14
	8.316228231201764e-08
	3.349764563386271e-06
	4.499988872583030e-07
	1.580477400848766e-01

 14	1.400000000000000e-01
	-1.450565070107184e-14
	-2.013473023858632e-18
	-4.080639591970826e-14
	8.889079440833265e-08
	3.613602805789808e-06
	4.847983044677149e-07
	1.580477427438620e-01

 15	1.500000000000000e-01
	-1.436704778352973e-14
	-2.057639486439609e-18
	-4.120365798409694e-14
	9.498365407271172e-08
	3.899192203253549e-06
	5.223433337578272e-07
	1.580477456188200e-01

 16	1.600000000000000e-01
	-1.423128167208990e-14
	-2.102698489394501e-18
	-4.159803512490301e-14
	1.014614301372364e-07
	4.208437338165331e-06
	5.628608704928203e-07
	1.580477487284292e-01

 17	1.700000000000000e-01
	-1.409836046845577e-14
	-2.148666339116828e-18
	-4.198942777338837e-14
	1.083456495939934e-07
	4.543415458328106e-06
	6.065977069278173e-07
	1.580477520931189e-01

 18	1.800000000000000e-01
	-1.396829072703943e-14
	-2.195559628447616e-18
	-4.237773930482891e-14
	1.156588282104330e-07
	4.906391473237052e-06
	6.538223329277353e-07
	1.580477557352376e-01

 19	1.900000000000000e-01
	-1.384107745443341e-14
	-2.243395242742024e-18
	-4.276287610823196e-14
	1.234245012622079e-07
	5.299834029033380e-06
	7.048268920014803e-07
	1.580477596792352e-01

 20	2.000000000000000e-01
	-1.371672411184856e-14
	-2.292190366102972e-18
	-4.314474765012777e-14
	1.316672543261055e-07
	5.726432701773753e-06
	7.599293036383934e-07
	1.580477639518802e-01

 21	2.100000000000000e-01
	-1.359523262045203e-14
	-2.341962487789281e-18
	-4.352326653239028e-14
	1.404127540718252e-07
	6.189116344261453e-06
	8.194755633093484e-07
	1.580477685824783e-01

 22	2.200000000000001e-01
	-1.347660336953156e-14
	-2.392729408799972e-18
	-4.389834854405928e-14
	1.496877789870608e-07
	6.691072616187738e-06
	8.838422318201727e-07
	1.580477736031279e-01

 23	2.300000000000001e-01
	-1.336083522740586e-14
	-2.444509248641608e-18
	-4.426991270715594e-14
	1.595202499659822e-07
	7.235768720628254e-06
	9.534391259702338e-07
	1.580477790489865e-01

 24	2.400000000000001e-01
	-1.324792555499477e-14
	-2.497320452282362e-18
	-4.463788131650019e-14
	1.699392606863989e-07
	7.826973361905976e-06
	1.028712222659781e-06
	1.580477849585758e-01

 25	2.500000000000001e-01
	-1.313787022195633e-14
	-2.551181797297793e-18
	-4.500217997355769e-14
	1.809751076959641e-07
	8.468779930366121e-06
	1.110146788693690e-06
	1.580477913740942e-01

 26	2.600000000000001e-01
	-1.303066362529407e-14
	-2.606112401212890e-18
	-4.536273761435827e-14
	1.926593201223852e-07
	9.165630908588827e-06
	1.198270748530082e-06
	1.580477983417896e-01

 27	2.700000000000001e-01
	-1.292629871033092e-14
	-2.662131729047076e-18
	-4.571948653154787e-14
	2.050246889170722e-07
	9.922343480898047e-06
	1.293658302105772e-06
	1.580478059123271e-01

 28	2.800000000000001e-01
	-1.282476699394380e-14
	-2.719259601065074e-18
	-4.607236239064808e-14
	2.181052955356130e-07
	1.074413631359714e-05
	1.396933804617142e-06
	1.580478141412261e-01

 29	2.900000000000001e-01
	-1.272605858994775e-14
	-2.777516200740999e-18
	-4.642130424061533e-14
	2.319365399523399e-07
	1.163665745710243e-05
	1.508775919729746e-06
	1.580478230893131e-01

 30	3.000000000000001e-01
	-1.263016223651571e-14
	-2.836922082939875e-18
	-4.676625451880454e-14
	2.465551678995745e-07
	1.260601330296581e-05
	1.629922057111166e-06
	1.580478328232143e-01

 31	3.100000000000001e-01
	-1.253706532551709e-14
	-2.897498182322992e-18
	-4.710715905045609e-14
	2.619992972153597e-07
	1.365879850863414e-05
	1.761173104411860e-06
	1.580478434158996e-01

 32	3.200000000000001e-01
	-1.244675393365618e-14
	-2.959265821981754e-18
	-4.744396704283738e-14
	2.783084431762796e-07
	1.480212678064638e-05
	1.903398462837147e-06
	1.580478549472771e-01

 33	3.300000000000001e-01
	-1.235921285528896e-14
	-3.022246722308049e-18
	-4.777663107418411e-14
	2.955235426846659e-07
	1.604366238282409e-05
	2.057541394240800e-06
	1.580478675048101e-01

 34	3.400000000000001e-01
	-1.227442563679652e-14
	-3.086463010104191e-18
	-4.810510707759333e-14
	3.136869771717870e-07
	1.739165220988030e-05
	2.224624686205368e-06
	1.580478811842076e-01

 35	3.500000000000001e-01
	-1.219237461239189e-14
	-3.151937227941632e-18
	-4.842935432003507e-14
	3.328425940709103e-07
	1.885495823884235e-05
	2.405756639839228e-06
	1.580478960901655e-01

 36	3.600000000000002e-01
	-1.211304094123639e-14
	-3.218692343772913e-18
	-4.874933537665560e-14
	3.530357267063159e-07
	2.044309014085243e-05
	2.602137382995275e-06
	1.580479123371508e-01

 37	3.700000000000002e-01
	-1.203640464574271e-14
	-3.286751760803867e-18
	-4.906501610055443e-14
	3.743132124363491e-07
	2.216623780443484e-05
	2.815065509283282e-06
	1.580479300502629e-01

 38	3.800000000000002e-01
	-1.196244465094155e-14
	-3.356139327633531e-18
	-4.937636558822517e-14
	3.967234088809995e-07
	2.403530348843433e-05
	3.045945040595048e-06
	1.580479493661320e-01

 39	3.900000000000002e-01
	-1.189113882479018e-14
	-3.426879348667514e-18
	-4.968335614085469e-14
	4.203162080567480e-07
	2.606193328878019e-05
	3.296292707870558e-06
	1.580479704339124e-01

 40	4.000000000000002e-01
	-1.182246401930194e-14
	-3.498996594813225e-18
	-4.998596322168498e-14
	4.451430482343215e-07
	2.825854756839533e-05
	3.567745541500780e-06
	1.580479934163054e-01

 41	4.100000000000002e-01
	-1.175639611237900e-14
	-3.572516314463327e-18
	-5.028416540963966e-14
	4.712569233281836e-07
	3.063836996431891e-05
	3.862068759075816e-06
	1.580480184906808e-01

 42	4.200000000000002e-01
	-1.169291005023042e-14
	-3.647464244775289e-18
	-5.057794434942876e-14
	4.987123896206277e-07
	3.321545455097200e-05
	4.181163934151061e-06
	1.580480458502463e-01

 43	4.300000000000002e-01
	-1.163197989026254e-14
	-3.723866623255100e-18
	-5.086728469834155e-14
	5.275655696181251e-07
	3.600471070398819e-05
	4.527077425316058e-06
	1.580480757052826e-01

 44	4.400000000000002e-01
	-1.157357884432990e-14
	-3.801750199652827e-18
	-5.115217406994235e-14
	5.578741528335208e-07
	3.902192517582289e-05
	4.902009040124921e-06
	1.580481082844760e-01

 45	4.500000000000002e-01
	-1.151767932223793e-14
	-3.881142248177959e-18
	-5.143260297488610e-14
	5.896973932852449e-07
	4.228378086315464e-05
	5.308320903399922e-06
	1.580481438362758e-01

 46	4.600000000000002e-01
	-1.146425297539309e-14
	-3.962070580044359e-18
	-5.170856475906778e-14
	6.230961035034084e-07
	4.580787171765995e-05
	5.748546494069510e-06
	1.580481826303506e-01

 47	4.700000000000003e-01
	-1.141327074049874e-14
	-4.044563556351693e-18
	-5.198005553932147e-14
	6.581326448340075e-07
	4.961271322699041e-05
	6.225399809090609e-06
	1.580482249590859e-01

 48	4.800000000000003e-01
	-1.136470288319892e-14
	-4.128650101313999e-18
	-5.224707413688353e-14
	6.948709138355216e-07
	5.371774787255750e-05
	6.741784607162207e-06
	1.580482711391582e-01

 49	4.900000000000003e-01
	-1.131851904157637e-14
	-4.214359715843484e-18
	-5.250962200883168e-14
	7.333763245683839e-07
	5.814334495607217e-05
	7.300803678924466e-06
	1.580483215131447e-01

 50	5.000000000000002e-01
	-1.127468826941513e-14
	-4.301722491499985e-18
	-5.276770317770936e-14
	7.737157865867025e-07
	6.291079417863852e-05
	7.905768084205707e-06
	1.580483764511885e-01

 51	5.100000000000002e-01
	-1.123317907914259e-14
	-4.390769124815826e-18
	-5.302132415954192e-14
	8.159576784541659e-07
	6.804229235563445e-05
	8.560206290706461e-06
	1.580484363527065e-01

 52	5.200000000000002e-01
	-1.119395948436908e-14
	-4.481530932005696e-18
	-5.327049389044744e-14
	8.601718166222922e-07
	7.356092265862647e-05
	9.267873142372382e-06
	1.580485016481042e-01

 53	5.300000000000002e-01
	-1.115699704194941e-14
	-4.574039864073619e-18
	-5.351522365204008e-14
	9.064294195296423e-07
	7.949062579316741e-05
	1.003275857969704e-05
	1.580485728005292e-01

 54	5.400000000000003e-01
	-1.112225889349358e-14
	-4.668328522325149e-18
	-5.375552699581923e-14
	9.548030668057611e-07
	8.585616254947360e-05
	1.085909602841529e-05
	1.580486503076209e-01

 55	5.500000000000003e-01
	-1.108971180625865e-14
	-4.764430174299620e-18
	-5.399141966673397e-14
	1.005366653493608e-06
	9.268306720254111e-05
	1.175137036760561e-05
	1.580487347032317e-01

 56	5.600000000000003e-01
	-1.105932221335966e-14
	-4.862378770130846e-18
	-5.422291952610377e-14
	1.058195339239438e-06
	9.999759128997289e-05
	1.271432538323189e-05
	1.580488265591337e-01

 57	5.700000000000003e-01
	-1.103105625324002e-14
	-4.962208959350499e-18
	-5.445004647407330e-14
	1.113365492440207e-06
	1.078266373603071e-04
	1.375297060875282e-05
	1.580489264866624e-01

 58	5.800000000000003e-01
	-1.100487980834797e-14
	-5.063956108145579e-18
	-5.467282237177072e-14
	1.170954629385102e-06
	1.161976823623347e-04
	1.487258745073304e-05
	1.580490351382954e-01

 59	5.900000000000003e-01
	-1.098075854296913e-14
	-5.167656317082735e-18
	-5.489127096333461e-14
	1.231041348480623e-06
	1.251386904370243e-04
	1.607873449454394e-05
	1.580491532091279e-01

 60	6.000000000000003e-01
	-1.095865794016985e-14
	-5.273346439313653e-18
	-5.510541779796463e-14
	1.293705259707545e-06
	1.346780149781502e-04
	1.737725188337427e-05
	1.580492814382148e-01

 61	6.100000000000003e-01
	-1.093854333781126e-14
	-5.381064099274278e-18
	-5.531529015214701e-14
	1.359026909522776e-06
	1.448442899452295e-04
	1.877426466301351e-05
	1.580494206097911e-01

 62	6.200000000000003e-01
	-1.092037996359631e-14
	-5.490847711892500e-18
	-5.552091695219755e-14
	1.427087701490496e-06
	1.556663105422661e-04
	2.027618498535809e-05
	1.580495715542798e-01

 63	6.300000000000003e-01
	-1.090413296911815e-14
	-5.602736502319659e-18
	-5.572232869725750e-14
	1.497969813003214e-06
	1.671729035170322e-04
	2.188971306542771e-05
	1.580497351491073e-01

 64	6.400000000000003e-01
	-1.088976746288138e-14
	-5.716770526199645e-18
	-5.591955738286968e-14
	1.571756108535885e-06
	1.793927874868922e-04
	2.362183678998940e-05
	1.580499123192811e-01

 65	6.500000000000004e-01
	-1.087724854227160e-14
	-5.832990690493140e-18
	-5.611263642525690e-14
	1.648530049963274e-06
	1.923544238567176e-04
	2.547982988075256e-05
	1.580501040376963e-01

 66	6.600000000000004e-01
	-1.086654132445194e-14
	-5.951438774872557e-18
	-5.630160058641576e-14
	1.728375604562055e-06
	2.060858590601208e-04
	2.747124852158965e-05
	1.580503113251245e-01

 67	6.700000000000004e-01
	-1.085761097617122e-14
	-6.072157453703644e-18
	-5.648648590013045e-14
	1.811377151414375e-06
	2.206145590246554e-04
	2.960392636741428e-05
	1.580505352498965e-01

 68	6.800000000000004e-01
	-1.085042274246868e-14
	-6.195190318633348e-18
	-5.666732959900690e-14
	1.897619387026890e-06
	2.359672369318792e-04
	3.188596786222059e-05
	1.580507769272215e-01

 69	6.900000000000004e-01
	-1.084494197426576e-14
	-6.320581901800051e-18
	-5.684417004261824e-14
	1.987187231079145e-06
	2.521696755112624e-04
	3.432573980536788e-05
	1.580510375181030e-01

 70	7.000000000000004e-01
	-1.084113415483863e-14
	-6.448377699686126e-18
	-5.701704664684492e-14
	2.080165733314121e-06
	2.692465452692817e-04
	3.693186111841075e-05
	1.580513182278780e-01

 71	7.100000000000004e-01
	-1.083896492516704e-14
	-6.578624197631426e-18
	-5.718599981448778e-14
	2.176639982683254e-06
	2.872212202083250e-04
	3.971319077959566e-05
	1.580516203043082e-01

 72	7.200000000000004e-01
	-1.083840010815874e-14
	-6.711368895028803e-18
	-5.735107086722457e-14
	2.276695019954723e-06
	3.061155927303785e-04
	4.267881390942216e-05
	1.580519450352378e-01

 73	7.300000000000004e-01
	-1.083940573175244e-14
	-6.846660331219803e-18
	-5.751230197897173e-14
	2.380415755086689e-06
	3.259498895441798e-04
	4.583802600826914e-05
	1.580522937458127e-01

 74	7.400000000000004e-01
	-1.084194805090225e-14
	-6.984548112114677e-18
	-5.766973611071161e-14
	2.487886890755819e-06
	3.467424904980736e-04
	4.920031536583974e-05
	1.580526677952215e-01

 75	7.500000000000004e-01
	-1.084599356845249e-14
	-7.125082937557681e-18
	-5.782341694683309e-14
	2.599192853512461e-06
	3.685097523404425e-04
	5.277534368182713e-05
	1.580530685730123e-01

 76	7.600000000000005e-01
	-1.085150905491148e-14
	-7.268316629458019e-18
	-5.797338883303173e-14
	2.714417734108152e-06
	3.912658394623916e-04
	5.657292495754023e-05
	1.580534974949546e-01

 77	7.700000000000005e-01
	-1.085846156713562e-14
	-7.414302160713225e-18
	-5.811969671580852e-14
	2.833645238605876e-06
	4.150225637002654e-04
	6.060300273892758e-05
	1.580539559984757e-01

 78	7.800000000000005e-01
	-1.086681846593856e-14
	-7.563093684946666e-18
	-5.826238608359931e-14
	2.956958651937709e-06
	4.397892352663087e-04
	6.487562581220294e-05
	1.580544455377029e-01

 79	7.900000000000005e-01
	-1.087654743264026e-14
	-7.714746567083841e-18
	-5.840150290956333e-14
	3.084440815618603e-06
	4.655725268327218e-04
	6.940092247379662e-05
	1.580549675781349e-01

 80	8.000000000000005e-01
	-1.088761648457362e-14
	-7.869317414793712e-18
	-5.853709359605375e-14
	3.216174121355858e-06
	4.923763527161550e-04
	7.418907351623896e-05
	1.580555235909976e-01

 81	8.100000000000005e-01
	-1.089999398956747e-14
	-8.026864110819977e-18
	-5.866920492078672e-14
	3.352240522313718e-06
	5.202017649963796e-04
	7.925028409053395e-05
	1.580561150472881e-01

 82	8.200000000000005e-01
	-1.091364867942737e-14
	-8.187445846230794e-18
	-5.879788398472252e-14
	3.492721563798808e-06
	5.490468682546094e-04
	8.459475462318925e-05
	1.580567434116457e-01

 83	8.300000000000005e-01
	-1.092854966243436e-14
	-8.351123154610901e-18
	-5.892317816166805e-14
	3.637698435127073e-06
	5.789067544353852e-04
	9.023265098205557e-05
	1.580574101360032e-01

 84	8.400000000000005e-01
	-1.094466643488658e-14
	-8.517957947230363e-18
	-5.904513504960284e-14
	3.787252044415089e-06
	6.097734591229296e-04
	9.617407409909504e-05
	1.580581166531793e-01

 85	8.500000000000005e-01
	-1.096196889170679e-14
	-8.688013549210907e-18
	-5.916380242373105e-14
	3.941463118011247e-06
	6.416359402817874e-04
	1.024290292699291e-04
	1.580588643704235e-01

 86	8.600000000000005e-01
	-1.098042733614119e-14
	-8.861354736728323e-18
	-5.927922819125502e-14
	4.100412326244125e-06
	6.744800802458425e-04
	1.090073953591666e-04
	1.580596546630284e-01

 87	8.700000000000006e-01
	-1.100001248857559e-14
	-9.038047775275623e-18
	-5.939146034786336e-14
	4.264180437120917e-06
	7.082887114542325e-04
	1.159188941469336e-04
	1.580604888680377e-01

 88	8.800000000000006e-01
	-1.102069549449556e-14
	-9.218160459021199e-18
	-5.950054693592375e-14
	4.432848499557099e-06
	7.430416661320554e-04
	1.231730600554655e-04
	1.580613682781873e-01

 89	8.900000000000006e-01
	-1.104244793161785e-14
	-9.401762151294960e-18
	-5.960653600436749e-14
	4.606498057665222e-06
	7.787158498040242e-04
	1.307792104950481e-04
	1.580622941361061e-01

 90	9.000000000000006e-01
	-1.106524181622031e-14
	-9.588923826235535e-18
	-5.970947557024937e-14
	4.785211397575895e-06
	8.152853382158974e-04
	1.387464170658561e-04
	1.580632676288705e-01

 91	9.100000000000006e-01
	-1.108904960869914e-14
	-9.779718111633712e-18
	-5.980941358196455e-14
	4.969071828212472e-06
	8.527214969279677e-04
	1.470834778463883e-04
	1.580642898829908e-01

 92	9.200000000000006e-01
	-1.111384421838123e-14
	-9.974219333010304e-18
	-5.990639788410110e-14
	5.158163997395617e-06
	8.909931225431672e-04
	1.557988909902876e-04
	1.580653619598839e-01

 93	9.300000000000006e-01
	-1.113959900761954e-14
	-1.017250355896256e-17
	-6.000047618390640e-14
	5.352574244618245e-06
	9.300666042453704e-04
	1.649008298414644e-04
	1.580664848518841e-01

 94	9.400000000000006e-01
	-1.116628779520112e-14
	-1.037464864782205e-17
	-6.009169601933977e-14
	5.552390991808796e-06
	9.699061040568134e-04
	1.743971197627829e-04
	1.580676594788618e-01

 95	9.500000000000006e-01
	-1.119388485909469e-14
	-1.058073429566177e-17
	-6.018010472868710e-14
	5.757705173396861e-06
	1.010473753982702e-03
	1.842952168564106e-04
	1.580688866854761e-01

 96	9.600000000000006e-01
	-1.122236493856713e-14
	-1.079084208569716e-17
	-6.026574942170658e-14
	5.968610707011774e-06
	1.051729868000142e-03
	1.946021887344686e-04
	1.580701672391039e-01

 97	9.700000000000006e-01
	-1.125170323569555e-14
	-1.100505553912315e-17
	-6.034867695227732e-14
	6.185205006187425e-06
	1.093633166671742e-03
	2.053246974772353e-04
	1.580715018284453e-01

 98	9.800000000000006e-01
	-1.128187541630342e-14
	-1.122346016743473e-17
	-6.042893389251781e-14
	6.407589536519645e-06
	1.136141012024383e-03
	2.164689848932019e-04
	1.580728910628424e-01

 99	9.900000000000007e-01
	-1.131285761034758e-14
	-1.144614352627788e-17
	-6.050656650834233e-14
	6.635870416828458e-06
	1.179209650232869e-03
	2.280408601710876e-04
	1.580743354722986e-01

 100	1.000000000000001e+00
	-1.134462641178213e-14
	-1.167319527088225e-17
	-6.058162073642264e-14
	6.870159067023074e-06
	1.222794459587790e-03
	2.400456899889722e-04
	1.580758355081638e-01

 101	1.010000000000001e+00
	-1.137715887792636e-14
	-1.190470721312524e-17
	-6.065414216251834e-14
	7.110572904554320e-06
	1.266850201206883e-03
	2.524883911203227e-04
	1.580773915445091e-01

 102	1.020000000000001e+00
	-1.141043252836099e-14
	-1.214077338028529e-17
	-6.072417600114295e-14
	7.357236091573696e-06
	1.311331269969144e-03
	2.653734255513367e-04
	1.580790038800991e-01

 103	1.030000000000001e+00
	-1.144442534337893e-14
	-1.238149007553947e-17
	-6.079176707652813e-14
	7.610280335202849e-06
	1.356191943208921e-03
	2.787047980990491e-04
	1.580806727409741e-01

 104	1.040000000000001e+00
	-1.147911576201311e-14
	-1.262695594026345e-17
	-6.085695980485106e-14
	7.869845743658477e-06
	1.401386624801401e-03
	2.924860564954823e-04
	1.580823982835388e-01

 105	1.050000000000001e+00
	-1.151448267966691e-14
	-1.287727201819771e-17
	-6.091979817768697e-14
	8.136081741377533e-06
	1.446870082397440e-03
	3.067202938799952e-04
	1.580841805981517e-01

 106	1.060000000000001e+00
	-1.155050544536805e-14
	-1.313254182154489e-17
	-6.098032574665096e-14
	8.409148046754350e-06
	1.492597675721840e-03
	3.214101536203823e-04
	1.580860197130914e-01

 107	1.070000000000001e+00
	-1.158716385866942e-14
	-1.339287139906264e-17
	-6.103858560919152e-14
	8.689215716636444e-06
	1.538525574029797e-03
	3.365578363632642e-04
	1.580879155988834e-01

 108	1.080000000000001e+00
	-1.162443816621760e-14
	-1.365836940622535e-17
	-6.109462039549839e-14
	8.976468262339257e-06
	1.584610961017761e-03
	3.521651091963097e-04
	1.580898681728730e-01

 109	1.090000000000001e+00
	-1.166230905801037e-14
	-1.392914717752386e-17
	-6.114847225648710e-14
	9.271102842634329e-06
	1.630812225701810e-03
	3.682333167888477e-04
	1.580918773040057e-01

 110	1.100000000000001e+00
	-1.170075766336250e-14
	-1.420531880098312e-17
	-6.120018285282476e-14
	9.573331539951803e-06
	1.677089138004890e-03
	3.847633943637672e-04
	1.580939428177133e-01

 111	1.110000000000001e+00
	-1.173976554659971e-14
	-1.448700119497178e-17
	-6.124979334495784e-14
	9.883382726922583e-06
	1.723403008028482e-03
	4.017558823422094e-04
	1.580960645008472e-01

 112	1.120000000000001e+00
	-1.177931470249954e-14
	-1.477431418739056e-17
	-6.129734438410677e-14
	1.020150253137707e-05
	1.769716828220041e-03
	4.192109424934864e-04
	1.580982421065861e-01

 113	1.130000000000001e+00
	-1.181938755149675e-14
	-1.506738059731627e-17
	-6.134287610419039e-14
	1.052795640903203e-05
	1.815995397881096e-03
	4.371283754160709e-04
	1.581004753592554e-01

 114	1.140000000000001e+00
	-1.185996693467074e-14
	-1.536632631920073e-17
	-6.138642811464467e-14
	1.086303083434182e-05
	1.862205429687329e-03
	4.555076391710748e-04
	1.581027639589937e-01

 115	1.150000000000001e+00
	-1.190103610853245e-14
	-1.567128040970302e-17
	-6.142803949409871e-14
	1.120703512138432e-05
	1.908315638108440e-03
	4.743478688874932e-04
	1.581051075862120e-01

 116	1.160000000000001e+00
	-1.194257873962579e-14
	-1.598237517725827e-17
	-6.146774878487518e-14
	1.156030338821373e-05
	1.954296809818842e-03
	4.936478971584934e-04
	1.581075059058063e-01

 117	1.170000000000001e+00
	-1.198457889896037e-14
	-1.629974627447690e-17
	-6.150559398827780e-14
	1.192319667985844e-05
	2.000121856377343e-03
	5.134062750498461e-04
	1.581099585710757e-01

 118	1.180000000000001e+00
	-1.202702105628991e-14
	-1.662353279347482e-17
	-6.154161256063418e-14
	1.229610526710357e-05
	2.045765849623566e-03
	5.336212935454119e-04
	1.581124652273127e-01

 119	1.190000000000001e+00
	-1.206989007425105e-14
	-1.695387736424111e-17
	-6.157584141005895e-14
	1.267945114039498e-05
	2.091206040388279e-03
	5.542910052597434e-04
	1.581150255150502e-01

 120	1.200000000000001e+00
	-1.211317120237685e-14
	-1.729092625614853e-17
	-6.160831689390520e-14
	1.307369072067552e-05
	2.136421861244319e-03
	5.754132462546473e-04
	1.581176390729436e-01

 121	1.210000000000001e+00
	-1.215685007099811e-14
	-1.763482948272004e-17
	-6.163907481687151e-14
	1.347931781174717e-05
	2.181394914132635e-03
	5.969856578043609e-04
	1.581203055402729e-01

 122	1.220000000000001e+00
	-1.220091268504610e-14
	-1.798574090976557e-17
	-6.166815042973317e-14
	1.389686682189262e-05
	2.226108943784492e-03
	6.190057079628135e-04
	1.581230245590864e-01

 123	1.230000000000001e+00
	-1.224534541776872e-14
	-1.834381836701078e-17
	-6.169557842866712e-14
	1.432691628603929e-05
	2.270549797926657e-03
	6.414707127960741e-04
	1.581257957759626e-01

 124	1.240000000000001e+00
	-1.229013500437236e-14
	-1.870922376333738e-17
	-6.172139295514014e-14
	1.477009272376560e-05
	2.314705375300983e-03
	6.643778571531753e-04
	1.581286188434170e-01

 125	1.250000000000001e+00
	-1.233526853560169e-14
	-1.908212320576360e-17
	-6.174562759633110e-14
	1.522707487300567e-05
	2.358565562554983e-03
	6.877242148589487e-04
	1.581314934209907e-01

 126	1.260000000000001e+00
	-1.238073345126752e-14
	-1.946268712229901e-17
	-6.176831538605851e-14
	1.569859834449033e-05
	2.402122161066770e-03
	7.115067682232284e-04
	1.581344191760011e-01

 127	1.270000000000001e+00
	-1.242651753373418e-14
	-1.985109038880840e-17
	-6.178948880618641e-14
	1.618546074785599e-05
	2.445368804756329e-03
	7.357224267712697e-04
	1.581373957840182e-01

 128	1.280000000000001e+00
	-1.247260890137704e-14
	-2.024751246002212e-17
	-6.180917978847960e-14
	1.668852734707927e-05
	2.488300869908132e-03
	7.603680451106450e-04
	1.581404229290984e-01

 129	1.290000000000001e+00
	-1.251899600201840e-14
	-2.065213750484689e-17
	-6.182741971688528e-14
	1.720873731058172e-05
	2.530915377988691e-03
	7.854404398600378e-04
	1.581435003037671e-01

 130	1.300000000000001e+00
	-1.256566760635322e-14
	-2.106515454612035e-17
	-6.184423943021209e-14
	1.774711063013972e-05
	2.573210892386729e-03
	8.109364055747280e-04
	1.581466276088371e-01

 131	1.310000000000001e+00
	-1.261261280137217e-14
	-2.148675760496966e-17
	-6.185966922518433e-14
	1.830475579281898e-05
	2.615187409937208e-03
	8.368527296126435e-04
	1.581498045530719e-01

 132	1.320000000000001e+00
	-1.265982098379033e-14
	-2.191714584993735e-17
	-6.187373885984707e-14
	1.888287830172976e-05
	2.656846248012645e-03
	8.631862058930890e-04
	1.581530308527068e-01

 133	1.330000000000001e+00
	-1.270728185349083e-14
	-2.235652375104086e-17
	-6.188647755729869e-14
	1.948279015470330e-05
	2.698189927876974e-03
	8.899336475074421e-04
	1.581563062309226e-01

 134	1.340000000000001e+00
	-1.275498540698923e-14
	-2.280510123893705e-17
	-6.189791400972904e-14
	2.010592040532571e-05
	2.739222054902560e-03
	9.170918981478996e-04
	1.581596304172292e-01

 135	1.350000000000001e+00
	-1.280292193092697e-14
	-2.326309386938231e-17
	-6.190807638274210e-14
	2.075382694843193e-05
	2.779947196146008e-03
	9.446578423255300e-04
	1.581630031468436e-01

 136	1.360000000000001e+00
	-1.285108199559920e-14
	-2.373072299316466e-17
	-6.191699231994259e-14
	2.142820969257455e-05
	2.820370755668130e-03
	9.726284143534718e-04
	1.581664241600532e-01

 137	1.370000000000001e+00
	-1.289945644852450e-14
	-2.420821593171134e-17
	-6.192468894776621e-14
	2.213092530557140e-05
	2.860498847865038e-03
	1.001000606074292e-03
	1.581698932016110e-01

 138	1.380000000000001e+00
	-1.294803640806025e-14
	-2.469580615857057e-17
	-6.193119288053595e-14
	2.286400374654341e-05
	2.900338168952772e-03
	1.029771473312631e-03
	1.581734100201499e-01

 139	1.390000000000001e+00
	-1.299681325707024e-14
	-2.519373348697737e-17
	-6.193653022572503e-14
	2.362966682948705e-05
	2.939895866615263e-03
	1.058938141034935e-03
	1.581769743676563e-01

 140	1.400000000000001e+00
	-1.304577863664774e-14
	-2.570224426373024e-17
	-6.194072658941050e-14
	2.443034910011908e-05
	2.979179407685818e-03
	1.088497807197614e-03
	1.581805859989810e-01

 141	1.410000000000001e+00
	-1.309492443989922e-14
	-2.622159156959069e-17
	-6.194380708190025e-14
	2.526872135031370e-05
	3.018196443583112e-03
	1.118447745262834e-03
	1.581842446714071e-01

 142	1.420000000000001e+00
	-1.314424280579149e-14
	-2.675203542646218e-17
	-6.194579632351799e-14
	2.614771714391546e-05
	3.056954673063592e-03
	1.148785305357620e-03
	1.581879501442719e-01

 143	1.430000000000001e+00
	-1.319372611306539e-14
	-2.729384301157641e-17
	-6.194671845053184e-14
	2.707056278519688e-05
	3.095461701681390e-03
	1.179507914046858e-03
	1.581917021786023e-01

 144	1.440000000000001e+00
	-1.324336697421904e-14
	-2.784728887895735e-17
	-6.194659712121212e-14
	2.804081122804456e-05
	3.133724897160860e-03
	1.210613072683649e-03
	1.581955005367822e-01

 145	1.450000000000001e+00
	-1.329315822956237e-14
	-2.841265518841951e-17
	-6.194545552200486e-14
	2.906238050164510e-05
	3.171751239684730e-03
	1.242098354291695e-03
	1.581993449822184e-01

 146	1.460000000000001e+00
	-1.334309294134490e-14
	-2.899023194238293e-17
	-6.194331637380884e-14
	3.013959731873317e-05
	3.209547165878279e-03
	1.273961398923386e-03
	1.582032352789607e-01

 147	1.470000000000001e+00
	-1.339316438795789e-14
	-2.958031723079017e-17
	-6.194020193834450e-14
	3.127724663733968e-05
	3.247118405022554e-03
	1.306199907423822e-03
	1.582071711912772e-01

 148	1.480000000000001e+00
	-1.344336605821211e-14
	-3.018321748442703e-17
	-6.193613402460282e-14
	3.248062806868651e-05
	3.284469805755114e-03
	1.338811633515211e-03
	1.582111524831310e-01

 149	1.490000000000001e+00
	-1.349369164569088e-14
	-3.079924773695632e-17
	-6.193113399536486e-14
	3.375562016486239e-05
	3.321605151207929e-03
	1.371794374097184e-03
	1.582151789175108e-01

 150	1.500000000000001e+00
	-1.354413504317985e-14
	-3.142873189598429e-17
	-6.192522277378135e-14
	3.510875378287160e-05
	3.358526960184613e-03
	1.405145957636327e-03
	1.582192502556128e-01

 151	1.510000000000001e+00
	-1.359469033717210e-14
	-3.207200302350331e-17
	-6.191842085000326e-14
	3.654729590941415e-05
	3.395236271588700e-03
	1.438864230492853e-03
	1.582233662557776e-01

 152	1.520000000000001e+00
	-1.364535180244904e-14
	-3.272940362604678e-17
	-6.191074828785569e-14
	3.807934554610781e-05
	3.431732408871819e-03
	1.472947041001910e-03
	1.582275266721897e-01

 153	1.530000000000001e+00
	-1.369611389673568e-14
	-3.340128595492477e-17
	-6.190222473154587e-14