Title: ** sch_path: /home/andylithia/openmpw/project-yatsuhashi-chip1/xschem/gmid_test/nmos_test.sch
Date: Tue Jul 19 23:15:45  2022
Plotname: DC transfer characteristic
Flags: real
No. Variables: 8
No. Points: 181
Variables:
	0	v(v-sweep)	voltage
	1	@m.xm1.msky130_fd_pr__nfet_01v8[cgb]	capacitance
	2	@m.xm1.msky130_fd_pr__nfet_01v8[cgd]	capacitance
	3	@m.xm1.msky130_fd_pr__nfet_01v8[cgs]	capacitance
	4	@m.xm1.msky130_fd_pr__nfet_01v8[gds]	admittance
	5	@m.xm1.msky130_fd_pr__nfet_01v8[gm]	admittance
	6	i(@m.xm1.msky130_fd_pr__nfet_01v8[id])	current
	7	v(@m.xm1.msky130_fd_pr__nfet_01v8[vth])	voltage
Values:
 0	0.000000000000000e+00
	-4.914659717284161e-15
	-1.982812209775143e-19
	-6.822038569071598e-15
	1.442607055298564e-08
	6.469163880096944e-07
	6.958251059221259e-08
	2.760180455834168e-01

 1	1.000000000000000e-02
	-4.858610341379492e-15
	-2.037307789116650e-19
	-6.949315440803583e-15
	1.580153950464997e-08
	7.088733860760464e-07
	7.635679885883422e-08
	2.760180461624572e-01

 2	2.000000000000000e-02
	-4.803021891538733e-15
	-2.093159858733731e-19
	-7.077037404153827e-15
	1.730302335587067e-08
	7.766816517738012e-07
	8.377947309214262e-08
	2.760180467971158e-01

 3	3.000000000000000e-02
	-4.747912538088763e-15
	-2.150396029006907e-19
	-7.205145765891126e-15
	1.894136954852963e-08
	8.508946716504698e-07
	9.191177026093967e-08
	2.760180474926816e-01

 4	4.000000000000000e-02
	-4.693300313973237e-15
	-2.209044289182502e-19
	-7.333581250969112e-15
	2.072826828757313e-08
	9.321203318976379e-07
	1.008207295895298e-07
	2.760180482549535e-01

 5	5.000000000000000e-02
	-4.639203071675646e-15
	-2.269133010731126e-19
	-7.462284104426609e-15
	2.267630671443040e-08
	1.021026751720901e-06
	1.105797651766347e-07
	2.760180490902892e-01

 6	6.000000000000000e-02
	-4.585638440833254e-15
	-2.330690950927538e-19
	-7.591194194778296e-15
	2.479902522642735e-08
	1.118348805270564e-06
	1.212693003251591e-07
	2.760180500056651e-01

 7	7.000000000000001e-02
	-4.532623786686371e-15
	-2.393747256668957e-19
	-7.720251118538214e-15
	2.711097587045986e-08
	1.224895414160400e-06
	1.329774708719159e-07
	2.760180510087375e-01

 8	8.000000000000000e-02
	-4.480176169504226e-15
	-2.458331468543018e-19
	-7.849394305512236e-15
	2.962778271672949e-08
	1.341557700594431e-06
	1.458009056663703e-07
	2.760180521079117e-01

 9	9.000000000000000e-02
	-4.428312305124635e-15
	-2.524473525160164e-19
	-7.978563124491002e-15
	3.236620409418003e-08
	1.469318099347945e-06
	1.598455932886348e-07
	2.760180533124246e-01

 10	9.999999999999999e-02
	-4.377048526739954e-15
	-2.592203767763751e-19
	-8.107696988972659e-15
	3.534419654345157e-08
	1.609260535171949e-06
	1.752278451209693e-07
	2.760180546324326e-01

 11	1.100000000000000e-01
	-4.326400748056151e-15
	-2.661552945130989e-19
	-8.236735462544476e-15
	3.858098031576879e-08
	1.762581780435635e-06
	1.920753659940818e-07
	2.760180560791070e-01

 12	1.200000000000000e-01
	-4.276384427945342e-15
	-2.732552218778093e-19
	-8.365618363554251e-15
	4.209710621729174e-08
	1.930604115769637e-06
	2.105284448176766e-07
	2.760180576647432e-01

 13	1.300000000000000e-01
	-4.227014536705287e-15
	-2.805233168482652e-19
	-8.494285868706505e-15
	4.591452356821231e-08
	2.114789423857567e-06
	2.307412788698008e-07
	2.760180594028860e-01

 14	1.400000000000000e-01
	-4.178305524031308e-15
	-2.879627798135630e-19
	-8.622678615224949e-15
	5.005664901442642e-08
	2.316754853022803e-06
	2.528834467543248e-07
	2.760180613084707e-01

 15	1.500000000000000e-01
	-4.130271288797893e-15
	-2.955768541936685e-19
	-8.750737801230939e-15
	5.454843589709773e-08
	2.538290192493691e-06
	2.771415464296971e-07
	2.760180633979641e-01

 16	1.600000000000000e-01
	-4.082925150738300e-15
	-3.033688270943682e-19
	-8.878405283997517e-15
	5.941644385203572e-08
	2.781377104762520e-06
	3.037210161500147e-07
	2.760180656895443e-01

 17	1.700000000000000e-01
	-4.036279824101204e-15
	-3.113420299989168e-19
	-9.005623675751318e-15
	6.468890827680948e-08
	3.048210361781562e-06
	3.328481576222925e-07
	2.760180682032915e-01

 18	1.800000000000000e-01
	-3.990347393353345e-15
	-3.194998394976160e-19
	-9.132336436708966e-15
	7.039580926903644e-08
	3.341221230293270e-06
	3.647723821463404e-07
	2.760180709613964e-01

 19	1.900000000000000e-01
	-3.945139290987560e-15
	-3.278456780563587e-19
	-9.258487965049212e-15
	7.656893960464713e-08
	3.663103146743350e-06
	3.997687019352824e-07
	2.760180739884032e-01

 20	2.000000000000000e-01
	-3.900666277484742e-15
	-3.363830148253415e-19
	-9.384023683540810e-15
	8.324197129036422e-08
	4.016839813286647e-06
	4.381404901780574e-07
	2.760180773114728e-01

 21	2.100000000000000e-01
	-3.856938423467987e-15
	-3.451153664890102e-19
	-9.508890122564129e-15
	9.045052019041842e-08
	4.405735832623318e-06
	4.802225346555094e-07
	2.760180809606701e-01

 22	2.200000000000001e-01
	-3.813965094076739e-15
	-3.540462981582462e-19
	-9.633034999284197e-15
	9.823220819394074e-08
	4.833449980012988e-06
	5.263844108066278e-07
	2.760180849693094e-01

 23	2.300000000000001e-01
	-3.771754935577798e-15
	-3.631794243059235e-19
	-9.756407292755487e-15
	1.066267223569102e-07
	5.304031184998814e-06
	5.770342010014998e-07
	2.760180893742963e-01

 24	2.400000000000001e-01
	-3.730315864219857e-15
	-3.725184097467574e-19
	-9.878957314759063e-15
	1.156758704211189e-07
	5.821957262298870e-06
	6.326225873428332e-07
	2.760180942165499e-01

 25	2.500000000000001e-01
	-3.689655057327696e-15
	-3.820669706623206e-19
	-1.000063677619699e-14
	1.254236320829767e-07
	6.392176390193800e-06
	6.936473455137323e-07
	2.760180995414470e-01

 26	2.600000000000001e-01
	-3.649778946621867e-15
	-3.918288756724100e-19
	-1.012139884889228e-14
	1.359162053572145e-07
	7.020151284779119e-06
	7.606582669296745e-07
	2.760181053993012e-01

 27	2.700000000000001e-01
	-3.610693213740286e-15
	-4.018079469534029e-19
	-1.024119822266515e-14
	1.472020473550955e-07
	7.711905958970564e-06
	8.342625356458827e-07
	2.760181118459235e-01

 28	2.800000000000001e-01
	-3.572402787928018e-15
	-4.120080614045478e-19
	-1.035999115758271e-14
	1.593319087742065e-07
	8.474074885590500e-06
	9.151305850204822e-07
	2.760181189432215e-01

 29	2.900000000000001e-01
	-3.534911845852860e-15
	-4.224331518632457e-19
	-1.047773553130184e-14
	1.723588613774095e-07
	9.313954303802216e-06
	1.004002456934211e-06
	2.760181267598421e-01

 30	3.000000000000001e-01
	-3.498223813495689e-15
	-4.330872083697526e-19
	-1.059439088144907e-14
	1.863383177227058e-07
	1.023955531741311e-05
	1.101694683313594e-06
	2.760181353719011e-01

 31	3.100000000000001e-01
	-3.462341370056086e-15
	-4.439742794824791e-19
	-1.070991844300609e-14
	2.013280423941621e-07
	1.125965833222815e-05
	1.209107705690533e-06
	2.760181448637678e-01

 32	3.200000000000001e-01
	-3.427266453806648e-15
	-4.550984736444670e-19
	-1.082428118069195e-14
	2.173881539770764e-07
	1.238386826810653e-05
	1.327233843451556e-06
	2.760181553289098e-01

 33	3.300000000000001e-01
	-3.393000269822089e-15
	-4.664639606017737e-19
	-1.093744381635571e-14
	2.345811170188020e-07
	1.362266986047740e-05
	1.457165815186930e-06
	2.760181668708310e-01

 34	3.400000000000001e-01
	-3.359543299503090e-15
	-4.780749728747474e-19
	-1.104937285141610e-14
	2.529717232209326e-07
	1.498748223708138e-05
	1.600105810056738e-06
	2.760181796040536e-01

 35	3.500000000000001e-01
	-3.326895311809274e-15
	-4.899358072826115e-19
	-1.116003658440439e-14
	2.726270611191914e-07
	1.649071182039447e-05
	1.757375097272764e-06
	2.760181936552074e-01

 36	3.600000000000002e-01
	-3.295055376110417e-15
	-5.020508265222702e-19
	-1.126940512368841e-14
	2.936164735255483e-07
	1.814580246694676e-05
	1.930424151603542e-06
	2.760182091641742e-01

 37	3.700000000000002e-01
	-3.264021876561029e-15
	-5.144244608021131e-19
	-1.137745039547317e-14
	3.160115020331243e-07
	1.996728161450679e-05
	2.120843261216019e-06
	2.760182262853144e-01

 38	3.800000000000002e-01
	-3.233792527899708e-15
	-5.270612095313030e-19
	-1.148414614719199e-14
	3.398858179194964e-07
	2.197080107050376e-05
	2.330373571181914e-06
	2.760182451887752e-01

 39	3.900000000000002e-01
	-3.204364392571549e-15
	-5.399656430655377e-19
	-1.158946794641873e-14
	3.653151388287645e-07
	2.417317094434345e-05
	2.560918501645452e-06
	2.760182660618631e-01

 40	4.000000000000002e-01
	-3.175733899070129e-15
	-5.531424045097412e-19
	-1.169339317544609e-14
	3.923771306680668e-07
	2.659238510733245e-05
	2.814555464064694e-06
	2.760182891104899e-01

 41	4.100000000000002e-01
	-3.147896861393499e-15
	-5.665962115786043e-19
	-1.179590102168936e-14
	4.211512942210792e-07
	2.924763646223516e-05
	3.093547782246926e-06
	2.760183145606785e-01

 42	4.200000000000002e-01
	-3.120848499508097e-15
	-5.803318585156077e-19
	-1.189697246408711e-14
	4.517188360601435e-07
	3.215932022600952e-05
	3.400356707299984e-06
	2.760183426601236e-01

 43	4.300000000000002e-01
	-3.094583460714024e-15
	-5.943542180713450e-19
	-1.199659025568089e-14
	4.841625234309365e-07
	3.534902338036259e-05
	3.737653397381460e-06
	2.760183736797973e-01

 44	4.400000000000002e-01
	-3.069095841805441e-15
	-6.086682435417533e-19
	-1.209473890256588e-14
	5.185665228897185e-07
	3.883949843199563e-05
	4.108330714574188e-06
	2.760184079155761e-01

 45	4.500000000000002e-01
	-3.044379211920912e-15
	-6.232789708672319e-19
	-1.219140463941194e-14
	5.550162225936137e-07
	4.265461965433690e-05
	4.515514672743075e-06
	2.760184456898982e-01

 46	4.600000000000002e-01
	-3.020426635979652e-15
	-6.381915207933620e-19
	-1.228657540176128e-14
	5.935980382798916e-07
	4.681932006154248e-05
	4.962575352297605e-06
	2.760184873533885e-01

 47	4.700000000000003e-01
	-2.997230698601981e-15
	-6.534111010938866e-19
	-1.238024079531363e-14
	6.343992031203128e-07
	5.135950749932813e-05
	5.453137080910367e-06
	2.760185332864906e-01

 48	4.800000000000003e-01
	-2.974783528414233e-15
	-6.689430088572097e-19
	-1.247239206241402e-14
	6.775075418022141e-07
	5.630195843078408e-05
	5.991087664008246e-06
	2.760185839010163e-01

 49	4.900000000000003e-01
	-2.953076822641555e-15
	-6.847926328368186e-19
	-1.256302204596037e-14
	7.230112293674554e-07
	6.167418825235752e-05
	6.580586435866257e-06
	2.760186396416258e-01

 50	5.000000000000002e-01
	-2.932101871895119e-15
	-7.009654558668531e-19
	-1.265212515094860e-14
	7.709985355338910e-07
	6.750429729788781e-05
	7.226070892051030e-06
	2.760187009872022e-01

 51	5.100000000000002e-01
	-2.911849585063672e-15
	-7.174670573436907e-19
	-1.273969730387395e-14
	8.215575554296474e-07
	7.382079207713136e-05
	7.932261657436979e-06
	2.760187684520720e-01

 52	5.200000000000002e-01
	-2.892310514223468e-15
	-7.343031157745611e-19
	-1.282573591020479e-14
	8.747759278866992e-07
	8.065238174758362e-05
	8.704165541704607e-06
	2.760188425870379e-01

 53	5.300000000000002e-01
	-2.873474879484527e-15
	-7.514794113940295e-19
	-1.291023981014319e-14
	9.307405426642738e-07
	8.802775032998842e-05
	9.547076436742762e-06
	2.760189239802114e-01

 54	5.400000000000003e-01
	-2.855332593695473e-15
	-7.690018288497782e-19
	-1.299320923288358e-14
	9.895372382021726e-07
	9.597530574142324e-05
	1.046657381828144e-05
	2.760190132575611e-01

 55	5.500000000000003e-01
	-2.837873286933890e-15
	-7.868763599584346e-19
	-1.307464574957534e-14
	1.051250491734666e-06
	1.045229073249156e-04
	1.146851862783443e-05
	2.760191110831832e-01

 56	5.600000000000003e-01
	-2.821086330713462e-15
	-8.051091065328456e-19
	-1.315455222519149e-14
	1.115963103823893e-06
	1.136975741881674e-04
	1.255904633100134e-05
	2.760192181592135e-01

 57	5.700000000000003e-01
	-2.804960861844148e-15
	-8.237062832817634e-19
	-1.323293276949815e-14
	1.183755879592255e-06
	1.235251773101296e-04
	1.374455697455851e-05
	2.760193352253786e-01

 58	5.800000000000003e-01
	-2.789485805886235e-15
	-8.426742207836743e-19
	-1.330979268731432e-14
	1.254707309141425e-06
	1.340301190145921e-04
	1.503170209760513e-05
	2.760194630581256e-01

 59	5.900000000000003e-01
	-2.774649900144019e-15
	-8.620193685353079e-19
	-1.338513842824309e-14
	1.328893249835335e-06
	1.452350040241762e-04
	1.642736839115850e-05
	2.760196024693137e-01

 60	6.000000000000003e-01
	-2.760441716149467e-15
	-8.817482980772400e-19
	-1.345897753604884e-14
	1.406386613290252e-06
	1.571603068743324e-04
	1.793865804564391e-05
	2.760197543044176e-01

 61	6.100000000000003e-01
	-2.746849681591394e-15
	-9.018677061967261e-19
	-1.353131859784582e-14
	1.487257060050401e-06
	1.698240409625878e-04
	1.957286577609779e-05
	2.760199194402708e-01

 62	6.200000000000003e-01
	-2.733862101649710e-15
	-9.223844182106892e-19
	-1.360217119325611e-14
	1.571570705027833e-06
	1.832414349112039e-04
	2.133745256980100e-05
	2.760200987822665e-01

 63	6.300000000000003e-01
	-2.721467179699566e-15
	-9.433053913290572e-19
	-1.367154584368557e-14
	1.659389836842838e-06
	1.974246222102031e-04
	2.324001625940629e-05
	2.760202932610819e-01

 64	6.400000000000003e-01
	-2.709653037354269e-15
	-9.646377181011414e-19
	-1.373945396185799e-14
	1.750772654213933e-06
	2.123823502638481e-04
	2.528825908523300e-05
	2.760205038288754e-01

 65	6.500000000000004e-01
	-2.698407733820348e-15
	-9.863886299459314e-19
	-1.380590780173829e-14
	1.845773022507160e-06
	2.281197149710684e-04
	2.748995247180801e-05
	2.760207314550135e-01

 66	6.600000000000004e-01
	-2.687719284542409e-15
	-1.008565500768775e-18
	-1.387092040896706e-14
	1.944440253462866e-06
	2.446379268179086e-04
	2.985289930443502e-05
	2.760209771213223e-01

 67	6.700000000000004e-01
	-2.677575679119308e-15
	-1.031175850665648e-18
	-1.393450557191952e-14
	2.046818910969921e-06
	2.619341141411289e-04
	3.238489404989508e-05
	2.760212418169256e-01

 68	6.800000000000004e-01
	-2.667964898477183e-15
	-1.054227349717305e-18
	-1.399667777349295e-14
	2.152948645554009e-06
	2.800011687362188e-04
	3.509368111968204e-05
	2.760215265326983e-01

 69	6.900000000000004e-01
	-2.658874931288516e-15
	-1.077727821875450e-18
	-1.405745214371806e-14
	2.262864059987785e-06
	2.988276383355969e-04
	3.798691192277881e-05
	2.760218322554079e-01

 70	7.000000000000004e-01
	-2.650293789629886e-15
	-1.101685248942350e-18
	-1.411684441328105e-14
	2.376594608119925e-06
	3.183976696856448e-04
	4.107210109633974e-05
	2.760221599616204e-01

 71	7.100000000000004e-01
	-2.642209523874337e-15
	-1.126107774647053e-18
	-1.417487086803463e-14
	2.494164528661905e-06
	3.386910050225422e-04
	4.435658243535404e-05
	2.760225106114132e-01

 72	7.200000000000004e-01
	-2.634610236817354e-15
	-1.151003708819693e-18
	-1.423154830456820e-14
	2.615592815270429e-06
	3.596830337102157e-04
	4.784746506519301e-05
	2.760228851420273e-01

 73	7.300000000000004e-01
	-2.627484097038473e-15
	-1.176381531666804e-18
	-1.428689398689905e-14
	2.740893223829431e-06
	3.813448996881729e-04
	5.155159041300367e-05
	2.760232844615029e-01

 74	7.400000000000004e-01
	-2.620819351503034e-15
	-1.202249898149927e-18
	-1.434092560433931e-14
	2.870074317374537e-06
	4.036436642148224e-04
	5.547549053451368e-05
	2.760237094424270e-01

 75	7.500000000000004e-01
	-2.614604337411087e-15
	-1.228617642470367e-18
	-1.439366123058569e-14
	3.003139548627282e-06
	4.265425222187469e-04
	5.962534834173221e-05
	2.760241609158683e-01

 76	7.600000000000005e-01
	-2.608827493302818e-15
	-1.255493782662651e-18
	-1.444511928407192e-14
	3.140087379624363e-06
	4.500010694223978e-04
	6.400696025429058e-05
	2.760246396655828e-01

 77	7.700000000000005e-01
	-2.603477369431862e-15
	-1.282887525300110e-18
	-1.449531848961725e-14
	3.280911437450736e-06
	4.739756163159984e-04
	6.862570176322358e-05
	2.760251464226016e-01

 78	7.800000000000005e-01
	-2.598542637419724e-15
	-1.310808270315019e-18
	-1.454427784139787e-14
	3.425600704625122e-06
	4.984195440682130e-04
	7.348649635164777e-05
	2.760256818602678e-01

 79	7.900000000000005e-01
	-2.594012099206162e-15
	-1.339265615937236e-18
	-1.459201656726205e-14
	3.574139742252565e-06
	5.232836965948759e-04
	7.859378816313506e-05
	2.760262465897921e-01

 80	8.000000000000005e-01
	-2.589874695312013e-15
	-1.368269363754354e-18
	-1.463855409440399e-14
	3.726508943660107e-06
	5.485168022937799e-04
	8.395151874701413e-05
	2.760268411564049e-01

 81	8.100000000000005e-01
	-2.586119512432100e-15
	-1.397829523897058e-18
	-1.468391001640609e-14
	3.882684815878569e-06
	5.740659184124653e-04
	8.956310814201048e-05
	2.760274660361446e-01

 82	8.200000000000005e-01
	-2.582735790377055e-15
	-1.427956320353423e-18
	-1.472810406165423e-14
	4.042640286030809e-06
	5.998768906605069e-04
	9.543144048731127e-05
	2.760281216333281e-01

 83	8.300000000000005e-01
	-2.579712928383908e-15
	-1.458660196416439e-18
	-1.477115606312571e-14
	4.206345029441782e-06
	6.258948205147852e-04
	1.015588542752501e-04
	2.760288082787326e-01

 84	8.400000000000005e-01
	-2.577040490815999e-15
	-1.489951820268133e-18
	-1.481308592954552e-14
	4.373765816101771e-06
	6.520645326951881e-04
	1.079471372842694e-04
	2.760295262284918e-01

 85	8.500000000000005e-01
	-2.574708212273612e-15
	-1.521842090705694e-18
	-1.485391361790195e-14
	4.544866871992248e-06
	6.783310355016769e-04
	1.145975261564890e-04
	2.760302756637222e-01

 86	8.600000000000005e-01
	-2.572706002137037e-15
	-1.554342143012872e-18
	-1.489365910730934e-14
	4.719610251726439e-06
	7.046399670886602e-04
	1.215107105129587e-04
	2.760310566908418e-01

 87	8.700000000000006e-01
	-2.571023948564424e-15
	-1.587463354982512e-18
	-1.493234237420185e-14
	4.897956218958944e-06
	7.309380212895946e-04
	1.286868414329713e-04
	2.760318693425850e-01

 88	8.800000000000006e-01
	-2.569652321966834e-15
	-1.621217353094071e-18
	-1.496998336883919e-14
	5.079863631081903e-06
	7.571733472714495e-04
	1.361255440632794e-04
	2.760327135796612e-01

 89	8.900000000000006e-01
	-2.568581577983197e-15
	-1.655616018851940e-18
	-1.500660199310236e-14
	5.265290324840984e-06
	7.832959180679406e-04
	1.438259340696474e-04
	2.760335892929947e-01

 90	9.000000000000006e-01
	-2.567802359978067e-15
	-1.690671495289405e-18
	-1.504221807955466e-14
	5.454193499668897e-06
	8.092578638845673e-04
	1.517866375978765e-04
	2.760344963065411e-01

 91	9.100000000000006e-01
	-2.567305501084612e-15
	-1.726396193643598e-18
	-1.507685137174132e-14
	5.646530095742553e-06
	8.350137669588852e-04
	1.600058143749223e-04
	2.760354343805592e-01

 92	9.200000000000006e-01
	-2.567082025815666e-15
	-1.762802800207428e-18
	-1.511052150569870e-14
	5.842257164011044e-06
	8.605209156671308e-04
	1.684811835530998e-04
	2.760364032153118e-01

 93	9.300000000000006e-01
	-2.567123151265211e-15
	-1.799904283363769e-18
	-1.514324799264207e-14
	6.041332225712574e-06
	8.857395164675532e-04
	1.772100518819120e-04
	2.760374024551285e-01

 94	9.400000000000006e-01
	-2.567420287922324e-15
	-1.837713900808231e-18
	-1.517505020280034e-14
	6.243713619189309e-06
	9.106328631369477e-04
	1.861893437823821e-04
	2.760384316927357e-01

 95	9.500000000000006e-01
	-2.567965040119442e-15
	-1.876245206966512e-18
	-1.520594735036346e-14
	6.449360832112032e-06
	9.351674635689877e-04
	1.954156328974909e-04
	2.760394904738095e-01

 96	9.600000000000006e-01
	-2.568749206136322e-15
	-1.915512060612664e-18
	-1.523595847950843e-14
	6.658234817537585e-06
	9.593131251442264e-04
	2.048851746988874e-04
	2.760405783016649e-01

 97	9.700000000000006e-01
	-2.569764777980671e-15
	-1.955528632694739e-18
	-1.526510245146805e-14
	6.870298292530605e-06
	9.830430003380901e-04
	2.145939397435116e-04
	2.760416946420298e-01

 98	9.800000000000006e-01
	-2.571003940865874e-15
	-1.996309414374797e-18
	-1.529339793260643e-14
	7.085516018385622e-06
	1.006333594796182e-03
	2.245376471934173e-04
	2.760428389278463e-01

 99	9.900000000000007e-01
	-2.572459072405770e-15
	-2.037869225289361e-18
	-1.532086338346467e-14
	7.303855061777890e-06
	1.029164740569869e-03
	2.347117982368021e-04
	2.760440105640251e-01

 100	1.000000000000001e+00
	-2.574122741545727e-15
	-2.080223222038882e-18
	-1.534751704873971e-14
	7.525285036448783e-06
	1.051519537567849e-03
	2.451117090771210e-04
	2.760452089321170e-01

 101	1.010000000000001e+00
	-2.575987707249016e-15
	-2.123386906911790e-18
	-1.537337694815931e-14
	7.749778325290636e-06
	1.073384266542744e-03
	2.557325431891503e-04
	2.760464333948532e-01

 102	1.020000000000001e+00
	-2.578046916956339e-15
	-2.167376136852396e-18
	-1.539846086821626e-14
	7.977310282932962e-06
	1.094748277099839e-03
	2.665693425749694e-04
	2.760476833005129e-01

 103	1.030000000000001e+00
	-2.580293504836337e-15
	-2.212207132678726e-18
	-1.542278635472477e-14
	8.207859419147201e-06
	1.115603854294720e-03
	2.776170577882082e-04
	2.760489579870986e-01

 104	1.040000000000001e+00
	-2.582720789843592e-15
	-2.257896488559891e-18
	-1.544637070616285e-14
	8.441407563577291e-06
	1.135946067385942e-03
	2.888705765306285e-04
	2.760502567862569e-01

 105	1.050000000000001e+00
	-2.585322273600746e-15
	-2.304461181760087e-18
	-1.546923096776402e-14
	8.677940012468652e-06
	1.155772604237415e-03
	3.003247506604329e-04
	2.760515790269797e-01

 106	1.060000000000001e+00
	-2.588091638119909e-15
	-2.351918582658201e-18
	-1.549138392632317e-14
	8.917445658210845e-06
	1.175083594733855e-03
	3.119744214860785e-04
	2.760529240390164e-01

 107	1.070000000000001e+00
	-2.591022743378392e-15
	-2.400286465052223e-18
	-1.551284610568131e-14
	9.159917102625639e-06
	1.193881426391223e-03
	3.238144432520711e-04
	2.760542911560034e-01

 108	1.080000000000001e+00
	-2.594109624763148e-15
	-2.449583016756349e-18
	-1.553363376285477e-14
	9.405350755026890e-06
	1.212170555123534e-03
	3.358397047539364e-04
	2.760556797183477e-01

 109	1.090000000000001e+00
	-2.597346490397131e-15
	-2.499826850501875e-18
	-1.555376288477533e-14
	9.653746916153459e-06
	1.229957313878402e-03
	3.480451490480027e-04
	2.760570890757827e-01

 110	1.100000000000001e+00
	-2.600727718360695e-15
	-2.551037015149947e-18
	-1.557324918560856e-14
	9.905109849128145e-06
	1.247249721584182e-03
	3.604257912473031e-04
	2.760585185896681e-01

 111	1.110000000000001e+00
	-2.604247853820299e-15
	-2.603233007227520e-18
	-1.559210810461822e-14
	1.015944783863148e-05
	1.264057294571879e-03
	3.729767344179675e-04
	2.760599676350091e-01

 112	1.120000000000001e+00
	-2.607901606076015e-15
	-2.656434782795844e-18
	-1.561035480454562e-14
	1.041677323949880e-05
	1.280390862351494e-03
	3.856931836106578e-04
	2.760614356022087e-01

 113	1.130000000000001e+00
	-2.611683845538880e-15
	-2.710662769663044e-18
	-1.562800417047401e-14
	1.067710251595310e-05
	1.296262389342310e-03
	3.985704580789638e-04
	2.760629218985580e-01

 114	1.140000000000001e+00
	-2.615589600648432e-15
	-2.765937879951499e-18
	-1.564507080914876e-14
	1.094045627267827e-05
	1.311684803884933e-03
	4.116040017512626e-04
	2.760644259494858e-01

 115	1.150000000000001e+00
	-2.619614054740376e-15
	-2.822281523031559e-18
	-1.566156904872486e-14
	1.120685927891886e-05
	1.326671835604363e-03
	4.247893920345083e-04
	2.760659471995836e-01

 116	1.160000000000001e+00
	-2.623752542873264e-15
	-2.879715618833812e-18
	-1.567751293891495e-14
	1.147634048676593e-05
	1.341237861951354e-03
	4.381223470378857e-04
	2.760674851134002e-01

 117	1.170000000000001e+00
	-2.628000548623140e-15
	-2.938262611551635e-18
	-1.569291625151127e-14
	1.174893304475209e-05
	1.355397764525800e-03
	4.515987313113137e-04
	2.760690391760540e-01

 118	1.180000000000001e+00
	-2.632353700854055e-15
	-2.997945483747520e-18
	-1.570779248125654e-14
	1.202467430784108e-05
	1.369166795583498e-03
	4.652145601988720e-04
	2.760706088936403e-01

 119	1.190000000000001e+00
	-2.636807770472118e-15
	-3.058787770876132e-18
	-1.572215484703943e-14
	1.230360584484992e-05
	1.382560454945910e-03
	4.789660029101689e-04
	2.760721937934982e-01

 120	1.200000000000001e+00
	-2.641358667170014e-15
	-3.120813576237422e-18
	-1.573601629339142e-14
	1.258577344429742e-05
	1.395594377373259e-03
	4.928493844141872e-04
	2.760737934242955e-01

 121	1.210000000000001e+00
	-2.646002436168727e-15
	-3.184047586374798e-18
	-1.574938949226275e-14
	1.287122711962079e-05
	1.408284230322588e-03
	5.068611862598780e-04
	2.760754073559935e-01

 122	1.220000000000001e+00
	-2.650735254962379e-15
	-3.248515086932129e-18
	-1.576228684505626e-14
	1.316002111465382e-05
	1.420645621894874e-03
	5.209980464264662e-04
	2.760770351796860e-01

 123	1.230000000000001e+00
	-2.655553430072063e-15
	-3.314241978985983e-18
	-1.577472048489866e-14
	1.345221391021012e-05
	1.432694018677209e-03
	5.352567583039282e-04
	2.760786765073346e-01

 124	1.240000000000001e+00
	-2.660453393813619e-15
	-3.381254795867859e-18
	-1.578670227912986e-14
	1.374786823256594e-05
	1.444444673106217e-03
	5.496342689007543e-04
	2.760803309713979e-01

 125	1.250000000000001e+00
	-2.665431701084395e-15
	-3.449580720493005e-18
	-1.579824383199202e-14
	1.404705106458897e-05
	1.455912559915880e-03
	5.641276763719871e-04
	2.760819982243956e-01

 126	1.260000000000001e+00
	-2.670485026173276e-15
	-3.519247603213588e-18
	-1.580935648750041e-14
	1.434983366021645e-05
	1.467112321185479e-03
	5.787342269559967e-04
	2.760836779383929e-01

 127	1.270000000000001e+00
	-2.675610159598024e-15
	-3.590283980212892e-18
	-1.582005133247978e-14
	1.465629156294087e-05
	1.478058219469228e-03
	5.934513114033374e-04
	2.760853698044251e-01

 128	1.280000000000001e+00
	-2.680804004973735e-15
	-3.662719092458671e-18
	-1.583033919974994e-14
	1.496650462892339e-05
	1.488764098467369e-03
	6.082764609757614e-04
	2.760870735318884e-01

 129	1.290000000000001e+00
	-2.686063575915570e-15
	-3.736582905236170e-18
	-1.584023067144588e-14
	1.528055705531857e-05
	1.499243350687233e-03
	6.232073430880290e-04
	2.760887888478735e-01

 130	1.300000000000001e+00
	-2.691385992979011e-15
	-3.811906128277665e-18
	-1.584973608245783e-14
	1.559853741435974e-05
	1.509508891540259e-03
	6.382417566595468e-04
	2.760905154964926e-01

 131	1.310000000000001e+00
	-2.696768480640112e-15
	-3.888720236511525e-18
	-1.585886552397820e-14
	1.592053869372678e-05
	1.519573139326464e-03
	6.533776272374344e-04
	2.760922532381586e-01

 132	1.320000000000001e+00
	-2.702208364318424e-15
	-3.967057491450331e-18
	-1.586762884714227e-14
	1.624665834369050e-05
	1.529448000569207e-03
	6.686130019471204e-04
	2.760940018488707e-01

 133	1.330000000000001e+00
	-2.707703067444697e-15
	-4.046950963240071e-18
	-1.587603566675080e-14
	1.657699833150599e-05
	1.539144860179859e-03
	6.839460443212772e-04
	2.760957611194895e-01

 134	1.340000000000001e+00
	-2.713250108575092e-15
	-4.128434553393373e-18
	-1.588409536506346e-14
	1.691166520351140e-05
	1.548674575952834e-03
	6.993750290529077e-04
	2.760975308549939e-01

 135	1.350000000000001e+00
	-2.718847098553916e-15
	-4.211543018230033e-18
	-1.589181709565196e-14
	1.725077015537003e-05
	1.558047476914873e-03
	7.148983367133568e-04
	2.760993108737601e-01

 136	1.360000000000001e+00
	-2.724491737725984e-15
	-4.296311993048849e-18
	-1.589920978730349e-14
	1.759442911088688e-05
	1.567273365078768e-03
	7.305144484715296e-04
	2.761011010068288e-01

 137	1.370000000000001e+00
	-2.730181813200193e-15
	-4.382778017056701e-18
	-1.590628214796443e-14
	1.794276280982093e-05
	1.576361520178918e-03
	7.462219408461472e-04
	2.761029010972021e-01

 138	1.380000000000001e+00
	-2.735915196164994e-15
	-4.470978559080664e-18
	-1.591304266871619e-14
	1.829589690511370e-05
	1.585320706994658e-03
	7.620194805188774e-04
	2.761047109991323e-01

 139	1.390000000000001e+00
	-2.741689839257002e-15
	-4.560952044089612e-18
	-1.591949962777450e-14
	1.865396206995230e-05
	1.594159184895608e-03
	7.779058192322557e-04
	2.761065305774469e-01

 140	1.400000000000001e+00
	-2.747503773983060e-15
	-4.652737880554693e-18
	-1.592566109450474e-14
	1.901709411509252e-05
	1.602884719272132e-03
	7.938797887929721e-04
	2.761083597068750e-01

 141	1.410000000000001e+00
	-2.753355108196640e-15
	-4.746376488676896e-18
	-1.593153493344590e-14
	1.938543411687164e-05
	1.611504594541628e-03
	8.099402961976762e-04
	2.761101982714050e-01

 142	1.420000000000001e+00
	-2.759242023628653e-15
	-4.841909329512640e-18
	-1.593712880833696e-14
	1.975912855635520e-05
	1.620025628448887e-03
	8.260863188956884e-04
	2.761120461636556e-01

 143	1.430000000000001e+00
	-2.765162773473196e-15
	-4.939378935027754e-18
	-1.594245018613886e-14
	2.013832947007379e-05
	1.628454187404678e-03
	8.423169002001601e-04
	2.761139032842811e-01

 144	1.440000000000001e+00
	-2.771115680028050e-15
	-5.038828939114211e-18
	-1.594750634104697e-14
	2.052319461282701e-05
	1.636796202631970e-03
	8.586311448569431e-04
	2.761157695413803e-01

 145	1.450000000000001e+00
	-2.777099132390247e-15
	-5.140304109600874e-18
	-1.595230435848833e-14
	2.091388763305026e-05
	1.645057186912611e-03
	8.750282147780914e-04
	2.761176448499498e-01

 146	1.460000000000001e+00
	-2.783111584206345e-15
	-5.243850381296738e-18
	-1.595685113909891e-14
	2.131057826126880e-05
	1.653242251749830e-03
	8.915073249451095e-04
	2.761195291313516e-01

 147	1.470000000000001e+00
	-2.789151551477303e-15
	-5.349514890098860e-18
	-1.596115340267628e-14
	2.171344251218954e-05
	1.661356124782623e-03
	9.080677394852194e-04
	2.761214223128000e-01

 148	1.480000000000001e+00
	-2.795217610417682e-15
	-5.457346008207163e-18
	-1.596521769210381e-14
	2.212266290101480e-05
	1.669403167307460e-03
	9.247087679224083e-04
	2.761233243268846e-01

 149	1.490000000000001e+00
	-2.801308395368717e-15
	-5.567393380481853e-18
	-1.596905037724213e-14
	2.253842867459835e-05
	1.677387391780792e-03
	9.414297616036883e-04
	2.761252351111109e-01

 150	1.500000000000001e+00
	-2.807422596764846e-15
	-5.679707961986200e-18
	-1.597265765878491e-14
	2.296093605810371e-05
	1.685312479192240e-03
	9.582301102998059e-04
	2.761271546074617e-01

 151	1.510000000000001e+00
	-2.813558959153151e-15
	-5.794342056755478e-18
	-1.597604557207532e-14
	2.339038851786789e-05
	1.693181796213438e-03
	9.751092389785764e-04
	2.761290827619909e-01

 152	1.520000000000001e+00
	-2.819716279265064e-15
	-5.911349357838022e-18
	-1.597921999088067e-14
	2.382699704122355e-05
	1.700998412041400e-03
	9.920666047482424e-04
	2.761310195244264e-01

 153	1.530000000000001e+00
	-2.825893404139819e-15
	-6.030784988651868e-18
	-1.598218663112246e-14