Title: ** sch_path: /home/andylithia/openmpw/project-yatsuhashi-chip1/xschem/gmid_test/nmos_test.sch
Date: Tue Jul 19 23:15:45  2022
Plotname: DC transfer characteristic
Flags: real
No. Variables: 8
No. Points: 181
Variables:
	0	v(v-sweep)	voltage
	1	@m.xm1.msky130_fd_pr__nfet_01v8[cgb]	capacitance
	2	@m.xm1.msky130_fd_pr__nfet_01v8[cgd]	capacitance
	3	@m.xm1.msky130_fd_pr__nfet_01v8[cgs]	capacitance
	4	@m.xm1.msky130_fd_pr__nfet_01v8[gds]	admittance
	5	@m.xm1.msky130_fd_pr__nfet_01v8[gm]	admittance
	6	i(@m.xm1.msky130_fd_pr__nfet_01v8[id])	current
	7	v(@m.xm1.msky130_fd_pr__nfet_01v8[vth])	voltage
Values:
 0	0.000000000000000e+00
	-7.553511539291682e-16
	9.499725072201902e-20
	-7.110402096708724e-18
	8.256572307594882e-14
	2.434614839331068e-12
	8.439166645872930e-14
	7.570360370417123e-01

 1	1.000000000000000e-02
	-7.517055084912119e-16
	1.007968748925699e-19
	-7.563490981297539e-18
	1.092652583886324e-13
	3.248740433049695e-12
	1.126130085780628e-13
	7.570360370417134e-01

 2	2.000000000000000e-02
	-7.481044708628709e-16
	1.069476477056510e-19
	-8.052370981897900e-18
	1.445881680456157e-13
	4.335086973843733e-12
	1.502713696133541e-13
	7.570360370417157e-01

 3	3.000000000000000e-02
	-7.445464438484359e-16
	1.134768410744794e-19
	-8.580363956490620e-18
	1.913158882605446e-13
	5.784667152013321e-12
	2.005221797605996e-13
	7.570360370417182e-01

 4	4.000000000000000e-02
	-7.410298089012436e-16
	1.204142036301032e-19
	-9.151148647212756e-18
	2.531256625061252e-13
	7.718916678718441e-12
	2.675758115466916e-13
	7.570360370417218e-01

 5	5.000000000000000e-02
	-7.375529198477026e-16
	1.277920747362392e-19
	-9.768794270537539e-18
	3.348785657244960e-13
	1.029986083573662e-11
	3.570502043804617e-13
	7.570360370417265e-01

 6	6.000000000000000e-02
	-7.341140963972461e-16
	1.356454851548715e-19
	-1.043779613086389e-17
	4.429999552047234e-13
	1.374367677812684e-11
	4.764413194054825e-13
	7.570360370417322e-01

 7	7.000000000000001e-02
	-7.307116174315893e-16
	1.440122423513920e-19
	-1.116311331997447e-17
	5.859819389934652e-13
	1.833878493128033e-11
	6.357507775272516e-13
	7.570360370417407e-01

 8	8.000000000000000e-02
	-7.273437140655043e-16
	1.529329984510296e-19
	-1.195020857113741e-17
	7.750468992315022e-13
	2.446998060190244e-11
	8.483231654466894e-13
	7.570360370417518e-01

 9	9.000000000000000e-02
	-7.240085624701049e-16
	1.624512988781763e-19
	-1.280509034287504e-17
	1.025023558989292e-12
	3.265062036897288e-11
	1.131963002708909e-12
	7.570360370417660e-01

 10	9.999999999999999e-02
	-7.207042764485287e-16
	1.726136097207561e-19
	-1.373435721309162e-17
	1.355503487906172e-12
	4.356554859825218e-11
	1.510424702197774e-12
	7.570360370417858e-01

 11	1.100000000000000e-01
	-7.174288997529796e-16
	1.834693218540046e-19
	-1.474524466840770e-17
	1.792367554059172e-12
	5.812834293381037e-11
	2.015399964368068e-12
	7.570360370418122e-01

 12	1.200000000000000e-01
	-7.141803981315641e-16
	1.950707298191489e-19
	-1.584567437484592e-17
	2.369800288766560e-12
	7.755764749134026e-11
	2.689168499950245e-12
	7.570360370418467e-01

 13	1.300000000000000e-01
	-7.109566510937009e-16
	2.074729833656801e-19
	-1.704430601250977e-17
	3.132947592415357e-12
	1.034789464956162e-10
	3.588133206182561e-12
	7.570360370418932e-01

 14	1.400000000000000e-01
	-7.077554433843655e-16
	2.207340094105429e-19
	-1.835059174601058e-17
	4.141422499944636e-12
	1.380602390504872e-10
	4.787534487960413e-12
	7.570360370419553e-01

 15	1.500000000000000e-01
	-7.045744561607335e-16
	2.349144019199863e-19
	-1.977483338073484e-17
	5.473928549126991e-12
	1.841928796827932e-10
	6.387736376578110e-12
	7.570360370420379e-01

 16	1.600000000000000e-01
	-7.014112578705969e-16
	2.500772768547314e-19
	-2.132824221847686e-17
	7.234355505134797e-12
	2.457325772202394e-10
	8.522607502050226e-12
	7.570360370421478e-01

 17	1.700000000000000e-01
	-6.982632948410324e-16
	2.662880888121494e-19
	-2.302300156960845e-17
	9.559814137017772e-12
	3.278204980446397e-10
	1.137069349738490e-11
	7.570360370422952e-01

 18	1.800000000000000e-01
	-6.951278815991600e-16
	2.836144053293207e-19
	-2.487233179716982e-17
	1.263122370761579e-11
	4.373109973227414e-10
	1.517010821132853e-11
	7.570360370424909e-01

 19	1.900000000000000e-01
	-6.920021909653792e-16
	3.021256339640460e-19
	-2.689055765495469e-17
	1.668725864599623e-11
	5.833412291481954e-10
	2.023837792737421e-11
	7.570360370427527e-01

 20	2.000000000000000e-01
	-6.888832439843570e-16
	3.218926962434010e-19
	-2.909317753032634e-17
	2.204271361574724e-11
	7.780894558691748e-10
	2.699888043376189e-11
	7.570360370431013e-01

 21	2.100000000000000e-01
	-6.857678997910968e-16
	3.429876413713367e-19
	-3.149693400652926e-17
	2.911267720118287e-11
	1.037784197676524e-09
	3.601606202144801e-11
	7.570360370435673e-01

 22	2.200000000000001e-01
	-6.826528455498130e-16
	3.654831912457451e-19
	-3.411988491234175e-17
	3.844433749639346e-11
	1.384046627692208e-09
	4.804233351365231e-11
	7.570360370441876e-01

 23	2.300000000000001e-01
	-6.795345866526363e-16
	3.894522068992402e-19
	-3.698147372332486e-17
	5.075880880154108e-11
	1.845675382579821e-09
	6.408049812588270e-11
	7.570360370450155e-01

 24	2.400000000000001e-01
	-6.764094374242191e-16
	4.149670650177735e-19
	-4.010259781398264e-17
	6.700610718670979e-11
	2.461018251552123e-09
	8.546682402047757e-11
	7.570360370461192e-01

 25	2.500000000000001e-01
	-6.732735126471117e-16
	4.420989318037982e-19
	-4.350567263096391e-17
	8.843736509225400e-11
	3.281121656109750e-09
	1.139815407167710e-10
	7.570360370475914e-01

 26	2.600000000000001e-01
	-6.701227203014618e-16
	4.709169202593819e-19
	-4.721468936333174e-17
	1.166996270968880e-10
	4.373909829559352e-09
	1.519957388521184e-10
	7.570360370495535e-01

 27	2.700000000000001e-01
	-6.669527560001824e-16
	5.014871161215165e-19
	-5.125526312952238e-17
	1.539601944420323e-10
	5.829725497046308e-09
	2.026665534872125e-10
	7.570360370521690e-01

 28	2.800000000000001e-01
	-6.637590996960663e-16
	5.338714573665551e-19
	-5.565466808873791e-17
	2.030695915682220e-10
	7.768668177879101e-09
	2.701963277357363e-10
	7.570360370556546e-01

 29	2.900000000000001e-01
	-6.605370153378381e-16
	5.681264526207312e-19
	-6.044185522937877e-17
	2.677749487003276e-10
	1.035030196549927e-08
	3.601764638614193e-10
	7.570360370602992e-01

 30	3.000000000000001e-01
	-6.572815542545810e-16
	6.043017252001909e-19
	-6.564744790780791e-17
	3.529990997941639e-10
	1.378648050225757e-08
	4.800432292638045e-10
	7.570360370664863e-01

 31	3.100000000000001e-01
	-6.539875631474523e-16
	6.424383721063108e-19
	-7.130370953447693e-17
	4.652051958883625e-10
	1.835826358714954e-08
	6.396813481134717e-10
	7.570360370747266e-01

 32	3.200000000000001e-01
	-6.506496976578688e-16
	6.825671313776334e-19
	-7.744447716826418e-17
	6.128723902938332e-10
	2.443819041966043e-08
	8.522223473607574e-10
	7.570360370856968e-01

 33	3.300000000000001e-01
	-6.472624425544028e-16
	7.247063569986162e-19
	-8.410505423152435e-17
	8.071154812381589e-10
	3.251954425061661e-08
	1.135099051680525e-09
	7.570360371002980e-01

 34	3.400000000000001e-01
	-6.438201396267505e-16
	7.688598083077664e-19
	-9.132205515731158e-17
	1.062490680455810e-09
	4.325470979611321e-08
	1.511436213999009e-09
	7.570360371197234e-01

 35	3.500000000000001e-01
	-6.403170243828586e-16
	8.150142706956461e-19
	-9.913319459722844e-17
	1.398041361759929e-09
	5.750530750085385e-08
	2.011881090330638e-09
	7.570360371455553e-01

 36	3.600000000000002e-01
	-6.367472726019281e-16
	8.631370364019505e-19
	-1.075770139343369e-16
	1.838652248412929e-09
	7.640750741215420e-08
	2.677008080562368e-09
	7.570360371798868e-01

 37	3.700000000000002e-01
	-6.331050576879023e-16
	9.131732883367663e-19
	-1.166925383482624e-16
	2.416798597175227e-09
	1.014567979839978e-07
	3.560469812581109e-09
	7.570360372254887e-01

 38	3.800000000000002e-01
	-6.293846195817908e-16
	9.650434458037869e-19
	-1.265188586588649e-16
	3.174799140885243e-09
	1.346175236976565e-07
	4.733114852226914e-09
	7.570360372860168e-01

 39	3.900000000000002e-01
	-6.255803457145829e-16
	1.018640548298321e-18
	-1.370946337147240e-16
	4.167708462435746e-09
	1.784637100239001e-07
	6.288351249742846e-09
	7.570360373662934e-01

 40	4.000000000000002e-01
	-6.216868641065961e-16
	1.073827771423514e-18
	-1.484575112622728e-16
	5.467016609635143e-09
	2.363590436162416e-07
	8.349106961318351e-09
	7.570360374726639e-01

 41	4.100000000000002e-01
	-6.176991482395094e-16
	1.130436186351078e-18
	-1.606434680724028e-16
	7.165361439150403e-09
	3.126853137003135e-07
	1.107682401463995e-08
	7.570360376134611e-01

 42	4.200000000000002e-01
	-6.136126327469531e-16
	1.188262889790217e-18
	-1.736860736154669e-16
	9.382502335892173e-09
	4.131300389316280e-07
	1.468302351700784e-08
	7.570360377996037e-01

 43	4.300000000000002e-01
	-6.094233382999858e-16
	1.247069643506944e-18
	-1.876156857107237e-16
	1.227285189792558e-08
	5.450452192429413e-07
	1.944409219182202e-08
	7.570360380453586e-01

 44	4.400000000000002e-01
	-6.051280033275414e-16
	1.306582169267491e-18
	-2.024585912150091e-16
	1.603491323790822e-08
	7.178898806924243e-07
	2.572006471923307e-08
	7.570360383693109e-01

 45	4.500000000000002e-01
	-6.007242194429732e-16
	1.366490244832744e-18
	-2.182361097669726e-16
	2.092302164195738e-08
	9.437689136836501e-07
	3.397830294838469e-08
	7.570360387955858e-01

 46	4.600000000000002e-01
	-5.962105666916868e-16
	1.426448737608191e-18
	-2.349636836011525e-16
	2.726183539107323e-08
	1.238079088424951e-06
	4.482309143870636e-08
	7.570360393553781e-01

 47	4.700000000000003e-01
	-5.915867440473091e-16
	1.486079693408310e-18
	-2.526499811547567e-16
	3.546405394412596e-08
	1.620269372154732e-06
	5.903226092464418e-08
	7.570360400888424e-01

 48	4.800000000000003e-01
	-5.868536900275295e-16
	1.544975567761261e-18
	-2.712960462200336e-16
	4.605185153223399e-08
	2.114715975294827e-06
	7.760199182891186e-08
	7.570360410474087e-01

 49	4.900000000000003e-01
	-5.820136879408882e-16
	1.602703646302802e-18
	-2.908945273306067e-16
	5.968248589141662e-08
	2.751702123030489e-06
	1.018009054514274e-07
	7.570360422965751e-01

 50	5.000000000000002e-01
	-5.770704501736527e-16
	1.658811650119797e-18
	-3.114290235043539e-16
	7.717845675690727e-08
	3.568477775658854e-06
	1.332343802929454e-07
	7.570360439192326e-01

 51	5.100000000000002e-01
	-5.720291761322614e-16
	1.712834463522754e-18
	-3.328735820442387e-16
	9.956242467771101e-08
	4.610355268506034e-06
	1.739196904810555e-07
	7.570360460195527e-01

 52	5.200000000000002e-01
	-5.668965790040628e-16
	1.764301858846229e-18
	-3.551923815667541e-16
	1.280968333687298e-07
	5.931773821119653e-06
	2.263720103288840e-07
	7.570360487274337e-01

 53	5.300000000000002e-01
	-5.616808773955033e-16
	1.812747029608697e-18
	-3.783396286717093e-16
	1.643277847269800e-07
	7.597241039791522e-06
	2.937005346032674e-07
	7.570360522034827e-01

 54	5.400000000000003e-01
	-5.563917491314767e-16
	1.857715684450391e-18
	-4.022596897495423e-16
	2.101321771625814e-07
	9.682036430977474e-06
	3.797129263147385e-07
	7.570360566444322e-01

 55	5.500000000000003e-01
	-5.510402460003075e-16
	1.898775404658363e-18
	-4.268874705988527e-16
	2.677664305078794e-07
	1.227254564382143e-05
	4.890250642210502e-07
	7.570360622888456e-01

 56	5.600000000000003e-01
	-5.456386699244674e-16
	1.935524932440872e-18
	-4.521490462448976e-16
	3.399143022868754e-07
	1.546609077982575e-05
	6.271717189593817e-07
	7.570360694228906e-01

 57	5.700000000000003e-01
	-5.402004128220748e-16
	1.967603039265687e-18
	-4.779625322220583e-16
	4.297304005717318e-07
	1.937013751126689e-05
	8.007124992650932e-07
	7.570360783858936e-01

 58	5.800000000000003e-01
	-5.347397641774440e-16
	1.994696626069892e-18
	-5.042391773411221e-16
	5.408751079651300e-07
	2.410079757489941e-05
	1.017326386968844e-06
	7.570360895753440e-01

 59	5.900000000000003e-01
	-5.292716919349407e-16
	2.016547730864379e-18
	-5.308846473895752e-16
	6.775358806736164e-07
	2.978060457648597e-05
	1.285887645915872e-06
	7.570361034509844e-01

 60	6.000000000000003e-01
	-5.238116036516779e-16
	2.032959163236336e-18
	-5.578004600714989e-16
	8.444294390093869e-07
	3.653561480524265e-05
	1.616516030972431e-06
	7.570361205376309e-01

 61	6.100000000000003e-01
	-5.183750957935458e-16
	2.043798546733077e-18
	-5.848855244454950e-16
	1.046779391264274e-06
	4.449195937813321e-05
	2.020595119911921e-06
	7.570361414264219e-01

 62	6.200000000000003e-01
	-5.129776995680107e-16
	2.049000624764096e-18
	-6.120377336609355e-16
	1.290264472056903e-06
	5.377203202224231e-05
	2.510754165895188e-06
	7.570361667742661e-01

 63	6.300000000000003e-01
	-5.076346317251002e-16
	2.048567768036024e-18
	-6.391555582061334e-16
	1.580933896506828e-06
	6.449052175621854e-05
	3.100810869617802e-06
	7.570361973013547e-01

 64	6.400000000000003e-01
	-5.023605583329090e-16
	2.042568705629180e-18
	-6.661395882092937e-16
	1.925088294029334e-06
	7.675048269654224e-05
	3.805674514072191e-06
	7.570362337867218e-01

 65	6.500000000000004e-01
	-4.971693786911576e-16
	2.031135581675106e-18
	-6.928939773808050e-16
	2.329127136475187e-06
	9.063957789968680e-05
	4.641210578017047e-06
	7.570362770618851e-01

 66	6.600000000000004e-01
	-4.920740353620692e-16
	2.014459509888528e-18
	-7.193277475524395e-16
	2.799366272678976e-06
	1.062265582605664e-04
	5.624068941523814e-06
	7.570363280026693e-01

 67	6.700000000000004e-01
	-4.870863548707209e-16
	1.992784854735336e-18
	-7.453559208974814e-16
	3.341831850380188e-06
	1.235579686368037e-04
	6.771478045520119e-06
	7.570363875192908e-01

 68	6.800000000000004e-01
	-4.822169220669226e-16
	1.966402508011784e-18
	-7.709004561532406e-16
	3.962039302240478e-06
	1.426550403202881e-04
	8.101007084682780e-06
	7.570364565447635e-01

 69	6.900000000000004e-01
	-4.774749895578514e-16
	1.935642451859041e-18
	-7.958909748352564e-16
	4.664768021674800e-06
	1.635107511903917e-04
	9.630297966407198e-06
	7.570365360216582e-01

 70	7.000000000000004e-01
	-4.728684221158642e-16
	1.900865904043888e-18
	-8.202652728891020e-16
	5.453843752288729e-06
	1.860871143622306e-04
	1.137676893704557e-05
	7.570366268872387e-01

 71	7.100000000000004e-01
	-4.684036746223710e-16
	1.862457330310216e-18
	-8.439696219187763e-16
	6.331941485595239e-06
	2.103128747840955e-04
	1.335729295820957e-05
	7.570367300570577e-01

 72	7.200000000000004e-01
	-4.640858009875606e-16
	1.820816584344381e-18
	-8.669588716330694e-16
	7.300421703015530e-06
	2.360819167254752e-04
	1.558785634071947e-05
	7.570368464072299e-01

 73	7.300000000000004e-01
	-4.599184906237989e-16
	1.776351401616389e-18
	-8.891963711798726e-16
	8.359211954941715e-06
	2.632527721116309e-04
	1.808320665442152e-05
	7.570369767557819e-01

 74	7.400000000000004e-01
	-4.559041284608403e-16
	1.729470432523116e-18
	-9.106537314547234e-16
	9.506743864338778e-06
	2.916496335841260e-04
	2.085650297169549e-05
	7.570371218437317e-01

 75	7.500000000000004e-01
	-4.520438741660879e-16
	1.680576956243002e-18
	-9.313104532678287e-16
	1.073995256219405e-05
	3.210651959925969e-04
	2.391898521832131e-05
	7.570372823167539e-01

 76	7.600000000000005e-01
	-4.483377561489143e-16
	1.630063372544648e-18
	-9.511534475361265e-16
	1.205434136968018e-05
	3.512654775208972e-04
	2.727968184502117e-05
	7.570374587084755e-01

 77	7.700000000000005e-01
	-4.447847760490369e-16
	1.578306526974769e-18
	-9.701764736173609e-16
	1.344410955552896e-05
	3.819965327230278e-04
	3.094517538434361e-05
	7.570376514264953e-01

 78	7.800000000000005e-01
	-4.413830196931068e-16
	1.525663887267650e-18
	-9.883795207557916e-16
	1.490233579195760e-05
	4.129927092276123e-04
	3.491944326932256e-05
	7.570378607421446e-01

 79	7.900000000000005e-01
	-4.381297709068920e-16
	1.472470556718064e-18
	-1.005768155621541e-15
	1.642120524401220e-05
	4.439858707703648e-04
	3.920378661126139e-05
	7.570380867847916e-01

 80	8.000000000000005e-01
	-4.350216250502505e-16
	1.419037084296446e-18
	-1.022352856354318e-15
	1.799226478100047e-05
	4.747148591755822e-04
	4.379685302725501e-05
	7.570383295411532e-01

 81	8.100000000000005e-01
	-4.320545996601934e-16
	1.365648011601503e-18
	-1.038148350605814e-15
	1.960668912470803e-05
	5.049344269267047e-04
	4.869475203337092e-05
	7.570385888596617e-01

 82	8.200000000000005e-01
	-4.292242401113557e-16
	1.312561083083869e-18
	-1.053172972020975e-15
	2.125554104659329e-05
	5.344229452219873e-04
	5.389125411487896e-05
	7.570388644595469e-01

 83	8.300000000000005e-01
	-4.265257187075061e-16
	1.260007037769359e-18
	-1.067448046576970e-15
	2.293001082551880e-05
	5.629883603854846e-04
	5.937805841339809e-05
	7.570391559438977e-01

 84	8.400000000000005e-01
	-4.239539260834186e-16
	1.208189897226669e-18
	-1.080997317340433e-15
	2.462162360537240e-05
	5.904720969246790e-04
	6.514510980276150e-05
	7.570394628157328e-01

 85	8.500000000000005e-01
	-4.215035542110488e-16
	1.157287664914556e-18
	-1.093846413600646e-15
	2.632240740812965e-05
	6.167508443276863e-04
	7.118094431478319e-05
	7.570397844959729e-01

 86	8.600000000000005e-01
	-4.191691706605385e-16
	1.107453355455896e-18
	-1.106022368046203e-15
	2.802501871338857e-05
	6.417363771028609e-04
	7.747304234952685e-05
	7.570401203421717e-01

 87	8.700000000000006e-01
	-4.169452840628514e-16
	1.058816278006861e-18
	-1.117553183702990e-15
	2.972282618121859e-05
	6.653737160357866e-04
	8.400817144762477e-05
	7.570404696670042e-01

 88	8.800000000000006e-01
	-4.148264009580321e-16
	1.011483504980842e-18
	-1.128467450746373e-15
	3.140995593500734e-05
	6.876380310345238e-04
	9.077270400161878e-05
	7.570408317556552e-01

 89	8.900000000000006e-01
	-4.128070743950551e-16
	9.655414653235362e-19
	-1.138794012026397e-15
	3.308130370277565e-05
	7.085307142390375e-04
	9.775289947809591e-05
	7.570412058814812e-01

 90	9.000000000000006e-01
	-4.108819447815219e-16
	9.210576098007802e-19
	-1.148561675175473e-15
	3.473252007709665e-05
	7.280750282256051e-04
	1.049351449255579e-04
	7.570415913195522e-01

 91	9.100000000000006e-01
	-4.090457735705061e-16
	8.780821039518545e-19
	-1.157798968469715e-15
	3.635997534576657e-05
	7.463116749183065e-04
	1.123061513153439e-04
	7.570419873578845e-01

 92	9.200000000000006e-01
	-4.072934704244597e-16
	8.366495121807216e-19
	-1.166533937150287e-15
	3.796070997096732e-05
	7.632945533391428e-04
	1.198531063380057e-04
	7.570423933063404e-01

 93	9.300000000000006e-01
	-4.056201145189328e-16
	7.967804437046473e-19
	-1.174793976641427e-15
	3.953237606146935e-05
	7.790868929909520e-04
	1.275637865481262e-04
	7.570428085033292e-01

 94	9.400000000000006e-01
	-4.040209706481427e-16
	7.584831376218149e-19
	-1.182605698990696e-15
	4.107317427109994e-05
	7.937578747355705e-04
	1.354266332333666e-04
	7.570432323205073e-01

 95	9.500000000000006e-01
	-4.024915007758227e-16
	7.217549701385288e-19
	-1.189994828870217e-15
	4.258178960591747e-05
	8.073797884849391e-04
	1.434307971759917e-04
	7.570436641657489e-01

 96	9.600000000000006e-01
	-4.010273716431000e-16
	6.865838719926339e-19
	-1.196986125585329e-15
	4.405732872646502e-05
	8.200257292357970e-04
	1.515661577155947e-04
	7.570441034846609e-01

 97	9.700000000000006e-01
	-3.996244590046066e-16
	6.529496483460878e-19
	-1.203603327712920e-15
	4.549926054502086e-05
	8.317677997239553e-04
	1.598233213584189e-04
	7.570445497609302e-01

 98	9.800000000000006e-01
	-3.982788490179436e-16
	6.208251969382132e-19
	-1.209869117214022e-15
	4.690736126518943e-05
	8.426757674553949e-04
	1.681936047487446e-04
	7.570450025157633e-01

 99	9.900000000000007e-01
	-3.969868372627826e-16
	5.901776231540307e-19
	-1.215805100115980e-15
	4.828166449539932e-05
	8.528161135655154e-04
	1.766690062362504e-04
	7.570454613066450e-01

 100	1.000000000000001e+00
	-3.957449258163637e-16
	5.609692529386928e-19
	-1.221431801124535e-15
	4.962241667860976e-05
	8.622514082164639e-04
	1.852421696288023e-04
	7.570459257256223e-01

 101	1.010000000000001e+00
	-3.945498187635456e-16
	5.331585462493581e-19
	-1.226768669794326e-15
	5.093003780062274e-05
	8.710399496562299e-04
	1.939063430760471e-04
	7.570463953972767e-01

 102	1.020000000000001e+00
	-3.933984164730407e-16
	5.067009150543510e-19
	-1.231834096149343e-15
	5.220508714925718e-05
	8.792356096400406e-04
	2.026553354265660e-04
	7.570468699765178e-01

 103	1.030000000000001e+00
	-3.922878089277445e-16
	4.815494508316805e-19
	-1.236645433896912e-15
	5.344823377709982e-05
	8.868878351280725e-04
	2.114834718638224e-04
	7.570473491463036e-01

 104	1.040000000000001e+00
	-3.912152683567254e-16
	4.576555671498753e-19
	-1.241219029615607e-15
	5.466023125437323e-05
	8.940417639328619e-04
	2.203855501642403e-04
	7.570478326153603e-01

 105	1.050000000000001e+00
	-3.901782413796247e-16
	4.349695632898239e-19
	-1.245570256516700e-15
	5.584189627109535e-05
	9.007384195723333e-04
	2.293567985359732e-04
	7.570483201159709e-01

 106	1.060000000000001e+00
	-3.891743408411022e-16
	4.134411150357438e-19
	-1.249713551578966e-15
	5.699409064738996e-05
	9.070149575550680e-04
	2.383928356852297e-04
	7.570488114018563e-01

 107	1.070000000000001e+00
	-3.882013374834353e-16
	3.930196987742399e-19
	-1.253662455037432e-15
	5.811770632836762e-05
	9.129049414592443e-04
	2.474896335108621e-04
	7.570493062461896e-01

 108	1.080000000000001e+00
	-3.872571515793222e-16
	3.736549549241393e-19
	-1.257429651368261e-15
	5.921365296854644e-05
	9.184386323873132e-04
	2.566434826386078e-04
	7.570498044397469e-01

 109	1.090000000000001e+00
	-3.863398446241556e-16
	3.552969965144015e-19
	-1.261027011055139e-15
	6.028284774528398e-05
	9.236432797000108e-04
	2.658509608646344e-04
	7.570503057892086e-01

 110	1.100000000000001e+00
	-3.854476111672544e-16
	3.378966684530637e-19
	-1.264465632548286e-15
	6.132620707760493e-05
	9.285434044259597e-04
	2.751089044753234e-04
	7.570508101156069e-01

 111	1.110000000000001e+00
	-3.845787708445447e-16
	3.214057627136168e-19
	-1.267755883936840e-15
	6.234463996373185e-05
	9.331610695047747e-04
	2.844143823386320e-04
	7.570513172529186e-01

 112	1.120000000000001e+00
	-3.837317606606242e-16
	3.057771943187105e-19
	-1.270907443950272e-15
	6.333904268601000e-05
	9.375161331594377e-04
	2.937646726151947e-04
	7.570518270467964e-01

 113	1.130000000000001e+00
	-3.829051275558729e-16
	2.909651426429152e-19
	-1.273929341985960e-15
	6.431029466484301e-05
	9.416264833132411e-04
	3.031572419088196e-04
	7.570523393534273e-01

 114	1.140000000000001e+00
	-3.820975212839183e-16
	2.769251621935200e-19
	-1.276829996929575e-15
	6.525925527323643e-05
	9.455082521647744e-04
	3.125897266615169e-04
	7.570528540385142e-01

 115	1.150000000000001e+00
	-3.813076876161516e-16
	2.636142666708718e-19
	-1.279617254593841e-15
	6.618676145040814e-05
	9.491760108966590e-04
	3.220599165939529e-04
	7.570533709763587e-01

 116	1.160000000000001e+00
	-3.805344618828949e-16
	2.509909897644004e-19
	-1.282298423650681e-15
	6.709362597668115e-05
	9.526429450929454e-04
	3.315657399951235e-04
	7.570538900490554e-01

 117	1.170000000000001e+00
	-3.797767628550164e-16
	2.390154258081973e-19
	-1.284880309973065e-15
	6.798063629268352e-05
	9.559210118368741e-04
	3.411052506730139e-04
	7.570544111457668e-01

 118	1.180000000000001e+00
	-3.790335869651023e-16
	2.276492531075465e-19
	-1.287369249337001e-15
	6.884855376394647e-05
	9.590210797045211e-04
	3.506766163889925e-04
	7.570549341620795e-01

 119	1.190000000000001e+00
	-3.783040028635650e-16
	2.168557424555941e-19
	-1.289771138462050e-15
	6.969811330758263e-05
	9.619530530002164e-04
	3.602781086116151e-04
	7.570554589994354e-01

 120	1.200000000000001e+00
	-3.775871463021701e-16
	2.065997530863970e-19
	-1.292091464391398e-15
	7.053002331110274e-05
	9.647259816278753e-04
	3.699080934392702e-04
	7.570559855646277e-01

 121	1.210000000000001e+00
	-3.768822153352153e-16
	1.968477180595246e-19
	-1.294335332230594e-15
	7.134496578484653e-05
	9.673481579826048e-04
	3.795650235550224e-04
	7.570565137693450e-01

 122	1.220000000000001e+00
	-3.761884658269435e-16
	1.875676208431348e-19
	-1.296507491278375e-15
	7.214359669922230e-05
	9.698272021978302e-04
	3.892474310906315e-04
	7.570570435297768e-01

 123	1.230000000000001e+00
	-3.755052072526011e-16
	1.787289646503189e-19
	-1.298612359593914e-15
	7.292654646617807e-05
	9.721701370086749e-04
	3.989539212897216e-04
	7.570575747662528e-01

 124	1.240000000000001e+00
	-3.748317987797524e-16
	1.703027358956962e-19
	-1.300654047053169e-15
	7.369442053129292e-05
	9.743834534028417e-04
	4.086831668722478e-04
	7.570581074029286e-01

 125	1.250000000000001e+00
	-3.741676456160066e-16
	1.622613629658298e-19
	-1.302636376952946e-15
	7.444780004873496e-05
	9.764731681333078e-04
	4.184339030136138e-04
	7.570586413675005e-01

 126	1.260000000000001e+00
	-3.735121956091071e-16
	1.545786713432189e-19
	-1.304562906225410e-15
	7.518724261626979e-05
	9.784448740682624e-04
	4.282049228620685e-04
	7.570591765909507e-01

 127	1.270000000000001e+00
	-3.728649360853357e-16
	1.472298359851665e-19
	-1.306436944328336e-15
	7.591328305163843e-05
	9.803037842564556e-04
	4.379950735272434e-04
	7.570597130073231e-01

 128	1.280000000000001e+00
	-3.722253909123624e-16
	1.401913317346405e-19
	-1.308261570877659e-15
	7.662643419508770e-05
	9.820547704931638e-04
	4.478032524810235e-04
	7.570602505535163e-01

 129	1.290000000000001e+00
	-3.715931177729680e-16
	1.334408824304581e-19
	-1.310039652089141e-15
	7.732718772573060e-05
	9.837023970846624e-04
	4.576284043193374e-04
	7.570607891690990e-01

 130	1.300000000000001e+00
	-3.709677056364617e-16
	1.269574092867423e-19
	-1.311773856095484e-15
	7.801601498182766e-05
	9.852509504284575e-04
	4.674695178400234e-04
	7.570613287961465e-01

 131	1.310000000000001e+00
	-3.703487724150957e-16
	1.207209790238358e-19
	-1.313466667203914e-15
	7.869336777708636e-05
	9.867044649528630e-04
	4.773256233977349e-04
	7.570618693790847e-01

 132	1.320000000000001e+00
	-3.697359627932913e-16
	1.147127521588191e-19
	-1.315120399157720e-15
	7.935967920674374e-05
	9.880667458928734e-04
	4.871957905019172e-04
	7.570624108645578e-01

 133	1.330000000000001e+00
	-3.691289462180584e-16
	1.089149317940951e-19
	-1.316737207463064e-15
	8.001536443857539e-05
	9.893413893194544e-04
	4.970791256283785e-04
	7.570629532013009e-01

 134	1.340000000000001e+00
	-3.685274150395523e-16
	1.033107131860451e-19
	-1.318319100840136e-15
	8.066082148511542e-05
	9.905317997860969e-04
	5.069747702188689e-04
	7.570634963400239e-01

 135	1.350000000000001e+00
	-3.679310827913197e-16
	9.788423432309450e-20
	-1.319867951855158e-15
	8.129643195430735e-05
	9.916412059091516e-04
	5.168818988464448e-04
	7.570640402333098e-01

 136	1.360000000000001e+00
	-3.673396826003451e-16
	9.262052769809696e-20
	-1.321385506787175e-15
	8.192256177657892e-05
	9.926726741568000e-04
	5.267997175274050e-04
	7.570645848355155e-01

 137	1.370000000000001e+00
	-3.667529657176107e-16
	8.750547342107696e-20
	-1.322873394780800e-15
	8.253956190695898e-05
	9.936291210848288e-04
	5.367274621630968e-04
	7.570651301026837e-01

 138	1.380000000000001e+00
	-3.661707001604358e-16
	8.252575378514402e-20
	-1.324333136333480e-15
	8.314776900136786e-05
	9.945133242252873e-04
	5.466643970971185e-04
	7.570656759924579e-01

 139	1.390000000000001e+00
	-3.655926694584125e-16
	7.766880936909130e-20
	-1.325766151163020e-15
	8.374750606662664e-05
	9.953279318061126e-04
	5.566098137753788e-04
	7.570662224640092e-01

 140	1.400000000000001e+00
	-3.650186714952931e-16
	7.292279673495242e-20
	-1.327173765498581e-15
	8.433908308405908e-05
	9.960754714553877e-04
	5.665630294981064e-04
	7.570667694779618e-01

 141	1.410000000000001e+00
	-3.644485174396710e-16
	6.827654775887189e-20
	-1.328557218835695e-15
	8.492279760682840e-05
	9.967583580227756e-04
	5.765233862543434e-04
	7.570673169963267e-01

 142	1.420000000000001e+00
	-3.638820307578105e-16
	6.371953061439037e-20
	-1.329917670193377e-15
	8.549893533135633e-05
	9.973789006322842e-04
	5.864902496306819e-04
	7.570678649824421e-01

 143	1.430000000000001e+00
	-3.633190463024101e-16
	5.924181241218481e-20
	-1.331256203908988e-15
	8.606777064333302e-05
	9.979393090646846e-04
	5.964630077870699e-04
	7.570684134009091e-01

 144	1.440000000000001e+00
	-3.627594094715430e-16
	5.483402348892201e-20
	-1.332573835004209e-15
	8.662956713895307e-05
	9.984416995542193e-04
	6.064410704934078e-04
	7.570689622175426e-01

 145	1.450000000000001e+00
	-3.622029754324150e-16
	5.048732332514426e-20
	-1.333871514153266e-15
	8.718457812210018e-05
	9.988881000724181e-04
	6.164238682214716e-04
	7.570695113993151e-01

 146	1.460000000000001e+00
	-3.616496084049680e-16
	4.619336806526219e-20
	-1.335150132282471e-15
	8.773304707827227e-05
	9.992804551617075e-04
	6.264108512873406e-04
	7.570700609143098e-01

 147	1.470000000000001e+00
	-3.610991810007255e-16
	4.194427960464552e-20
	-1.336410524828153e-15
	8.827520812608275e-05
	9.996206303727589e-04
	6.364014890401180e-04
	7.570706107316743e-01

 148	1.480000000000001e+00
	-3.605515736126132e-16
	3.773261620347198e-20
	-1.337653475678174e-15
	8.881128644720060e-05
	9.999104163520448e-04
	6.463952690932173e-04
	7.570711608215758e-01

 149	1.490000000000001e+00
	-3.600066738518006e-16
	3.355134458239919e-20
	-1.338879720820478e-15
	8.934149869560708e-05
	1.000151532619617e-03
	6.563916965949199e-04
	7.570717111551611e-01

 150	1.500000000000001e+00
	-3.594643760279127e-16
	2.939381345193174e-20
	-1.340089951720464e-15
	8.986605338704864e-05
	1.000345631071647e-03
	6.663902935352925e-04
	7.570722617045160e-01

 151	1.510000000000001e+00
	-3.589245806692310e-16
	2.525372842468096e-20
	-1.341284818447385e-15
	9.038515126956082e-05
	1.000494299237531e-03
	6.763905980868610e-04
	7.570728124426267e-01

 152	1.520000000000001e+00
	-3.583871940797701e-16
	2.112512825818966e-20
	-1.342464932568560e-15
	9.089898567592377e-05
	1.000599063317314e-03
	6.863921639767109e-04
	7.570733633433485e-01

 153	1.530000000000001e+00
	-3.578521279303342e-16
	1.700236237449016e-20
	-1.343630869828826e-15
	9.140774285889263e-05
	1.000661391021761e-03
	6.963945598879564e-04
	7.570739143813676e-01

 154	1.540000000000001e+00
	-3.573192988809047e-16
	1.288006960284680e-20