Title: ** sch_path: /home/andylithia/openmpw/project-yatsuhashi-chip1/xschem/gmid_test/nmos_test.sch
Date: Sun Jul 17 22:51:45  2022
Plotname: DC transfer characteristic
Flags: real
No. Variables: 8
No. Points: 181
Variables:
	0	v(v-sweep)	voltage
	1	@m.xm1.msky130_fd_pr__nfet_01v8[cgb]	capacitance
	2	@m.xm1.msky130_fd_pr__nfet_01v8[cgd]	capacitance
	3	@m.xm1.msky130_fd_pr__nfet_01v8[cgs]	capacitance
	4	@m.xm1.msky130_fd_pr__nfet_01v8[gds]	admittance
	5	@m.xm1.msky130_fd_pr__nfet_01v8[gm]	admittance
	6	i(@m.xm1.msky130_fd_pr__nfet_01v8[id])	current
	7	v(@m.xm1.msky130_fd_pr__nfet_01v8[vth])	voltage
Values:
 0	0.000000000000000e+00
	-2.595900072270515e-15
	-2.210198237291404e-19
	-2.063525883115259e-15
	5.151371514607592e-09
	2.235614875642093e-07
	1.913417541593726e-08
	3.833779561448963e-01

 1	1.000000000000000e-02
	-2.568373009202280e-15
	-2.298553377926353e-19
	-2.121928777697141e-15
	5.785457131489939e-09
	2.508826752171103e-07
	2.150381336016662e-08
	3.833779563940670e-01

 2	2.000000000000000e-02
	-2.540858961995242e-15
	-2.390353270169765e-19
	-2.181173570801968e-15
	6.495973315534443e-09
	2.814827225621794e-07
	2.416275346906383e-08
	3.833779566736580e-01

 3	3.000000000000000e-02
	-2.513368781451859e-15
	-2.485716381246868e-19
	-2.241232581047312e-15
	7.291834322784282e-09
	3.157471714798611e-07
	2.714567684477397e-08
	3.833779569873167e-01

 4	4.000000000000000e-02
	-2.485913762540665e-15
	-2.584764240183447e-19
	-2.302076351739330e-15
	8.182940188065745e-09
	3.541062135074010e-07
	3.049133914993286e-08
	3.833779573391175e-01

 5	5.000000000000000e-02
	-2.458505612411122e-15
	-2.687621486807774e-19
	-2.363673695334472e-15
	9.180276225745344e-09
	3.970399141330825e-07
	3.424304271393085e-08
	3.833779577336147e-01

 6	6.000000000000000e-02
	-2.431156416362999e-15
	-2.794415923289003e-19
	-2.425991745566638e-15
	1.029602093725368e-08
	4.450840930487791e-07
	3.844916408855144e-08
	3.833779581758948e-01

 7	7.000000000000001e-02
	-2.403878601905942e-15
	-2.905278568556317e-19
	-2.488996017130727e-15
	1.154366275860156e-08
	4.988369551311204e-07
	4.316374407441233e-08
	3.833779586716421e-01

 8	8.000000000000000e-02
	-2.376684901062016e-15
	-3.020343715956526e-19
	-2.552650472758897e-15
	1.293812605464220e-08
	5.589665823848733e-07
	4.844714826274233e-08
	3.833779592272006e-01

 9	9.000000000000000e-02
	-2.349588311079700e-15
	-3.139748994516983e-19
	-2.616917597471405e-15
	1.449590672950094e-08
	6.262194149693804e-07
	5.436680732662986e-08
	3.833779598496620e-01

 10	9.999999999999999e-02
	-2.322602053742611e-15
	-3.263635434191390e-19
	-2.681758479730327e-15
	1.623521777302251e-08
	7.014298699891812e-07
	6.099804767757609e-08
	3.833779605469492e-01

 11	1.100000000000000e-01
	-2.295739533469724e-15
	-3.392147535471804e-19
	-2.747132899171322e-15
	1.817614499983680e-08
	7.855312701829766e-07
	6.842502470471423e-08
	3.833779613279101e-01

 12	1.200000000000000e-01
	-2.269014294415711e-15
	-3.525433343756484e-19
	-2.812999420537536e-15
	2.034081315936810e-08
	8.795682811624820e-07
	7.674177266534743e-08
	3.833779622024339e-01

 13	1.300000000000000e-01
	-2.242439976790369e-15
	-3.663644528867901e-19
	-2.879315493391155e-15
	2.275356250052095e-08
	9.847110855238763e-07
	8.605338742766161e-08
	3.833779631815700e-01

 14	1.400000000000000e-01
	-2.216030272624577e-15
	-3.806936470115602e-19
	-2.946037557131692e-15
	2.544113576271450e-08
	1.102271554949460e-06
	9.647736071103390e-08
	3.833779642776765e-01

 15	1.500000000000000e-01
	-2.189798881216764e-15
	-3.955468347302638e-19
	-3.013121150808078e-15
	2.843287543449951e-08
	1.233721717141478e-06
	1.081450872568263e-07
	3.833779655045657e-01

 16	1.600000000000000e-01
	-2.163759464498507e-15
	-4.109403238068446e-19
	-3.080521027172081e-15
	3.176093097147111e-08
	1.380714852663841e-06
	1.212035695201156e-07
	3.833779668776988e-01

 17	1.700000000000000e-01
	-2.137925602560252e-15
	-4.268908221965442e-19
	-3.148191270387181e-15
	3.546047549637897e-08
	1.545109596809279e-06
	1.358173480226600e-07
	3.833779684143779e-01

 18	1.800000000000000e-01
	-2.112310749578526e-15
	-4.434154491655288e-19
	-3.216085416776736e-15
	3.956993131625445e-08
	1.728997462389028e-06
	1.521706894621383e-07
	3.833779701339796e-01

 19	1.900000000000000e-01
	-2.086928190384215e-15
	-4.605317471613376e-19
	-3.284156577971281e-15
	4.413120338480909e-08
	1.934734239357572e-06
	1.704700690330391e-07
	3.833779720582177e-01

 20	2.000000000000000e-01
	-2.061790997907323e-15
	-4.782576944718492e-19
	-3.352357565796058e-15
	4.918991961449719e-08
	2.164975764402191e-06
	1.909469881628631e-07
	3.833779742114353e-01

 21	2.100000000000000e-01
	-2.036911991727682e-15
	-4.966117187101259e-19
	-3.420641018226451e-15
	5.479567670343969e-08
	2.422718585407743e-06
	2.138611739629521e-07
	3.833779766209462e-01

 22	2.200000000000001e-01
	-2.012303697952769e-15
	-5.156127111616753e-19
	-3.488959525732126e-15
	6.100228989062512e-08
	2.711346068730392e-06
	2.395042120660655e-07
	3.833779793174118e-01

 23	2.300000000000001e-01
	-1.987978310633643e-15
	-5.352800420298819e-19
	-3.557265757329312e-15
	6.786804479182434e-08
	3.034680507407321e-06
	2.682036700651009e-07
	3.833779823352822e-01

 24	2.400000000000001e-01
	-1.963947654917982e-15
	-5.556335766145890e-19
	-3.625512585665711e-15
	7.545594920293542e-08
	3.397041780948544e-06
	3.003277743277236e-07
	3.833779857132781e-01

 25	2.500000000000001e-01
	-1.940223152125458e-15
	-5.766936924580939e-19
	-3.693653210472999e-15
	8.383398249200816e-08
	3.803313086565135e-06
	3.362907083351510e-07
	3.833779894949571e-01

 26	2.600000000000001e-01
	-1.916815786915354e-15
	-5.984812974920278e-19
	-3.761641279738937e-15
	9.307533994213867e-08
	4.259014201237165e-06
	3.765586056164001e-07
	3.833779937293412e-01

 27	2.700000000000001e-01
	-1.893736076699605e-15
	-6.210178492179815e-19
	-3.829431007973067e-15
	1.032586691613297e-07
	4.770382636944721e-06
	4.216563144901012e-07
	3.833779984716248e-01

 28	2.800000000000001e-01
	-1.870994043436677e-15
	-6.443253749540317e-19
	-3.896977290967518e-15
	1.144682954497917e-07
	5.344462910319014e-06
	4.721750147821604e-07
	3.833780037839787e-01

 29	2.900000000000001e-01
	-1.848599187922704e-15
	-6.684264931790057e-19
	-3.964235816487072e-15
	1.267944328179157e-07
	5.989203955454234e-06
	5.287807679815999e-07
	3.833780097364525e-01

 30	3.000000000000001e-01
	-1.826560466676881e-15
	-6.933444360059428e-19
	-4.031163170359564e-15
	1.403333771875601e-07
	6.713564457510714e-06
	5.922240813780277e-07
	3.833780164079764e-01

 31	3.100000000000001e-01
	-1.804886271497861e-15
	-7.191030728159669e-19
	-4.097716937478828e-15
	1.551876781938138e-07
	7.527625568744315e-06
	6.633505629739458e-07
	3.833780238874795e-01

 32	3.200000000000001e-01
	-1.783584411747708e-15
	-7.457269350838378e-19
	-4.163855797276688e-15
	1.714662859423710e-07
	8.442710082935573e-06
	7.431127367090271e-07
	3.833780322751431e-01

 33	3.300000000000001e-01
	-1.762662099399292e-15
	-7.732412424266754e-19
	-4.229539613268710e-15
	1.892846690771925e-07
	9.471506686374218e-06
	8.325830760606839e-07
	3.833780416837601e-01

 34	3.400000000000001e-01
	-1.742125936862960e-15
	-8.016719299079233e-19
	-4.294729516327624e-15
	2.087649005812236e-07
	1.062819737421972e-05
	9.329682976727978e-07
	3.833780522402468e-01

 35	3.500000000000001e-01
	-1.721981907588337e-15
	-8.310456766288454e-19
	-4.359387981390597e-15
	2.300357078763483e-07
	1.192858552495990e-05
	1.045624934619232e-06
	3.833780640872737e-01

 36	3.600000000000002e-01
	-1.702235369417844e-15
	-8.613899356414041e-19
	-4.423478897359151e-15
	2.532324840120013e-07
	1.339022147254267e-05
	1.172076180604696e-06
	3.833780773850474e-01

 37	3.700000000000002e-01
	-1.682891050650055e-15
	-8.927329652169201e-19
	-4.486967630004275e-15
	2.784972570386651e-07
	1.503252172120271e-05
	1.314029961347456e-06
	3.833780923132018e-01

 38	3.800000000000002e-01
	-1.663953048753478e-15
	-9.251038615069710e-19
	-4.549821077742328e-15
	3.059786150537662e-07
	1.687687723422769e-05
	1.473398147264998e-06
	3.833781090728293e-01

 39	3.900000000000002e-01
	-1.645424831654916e-15
	-9.585325926340647e-19
	-4.612007720200661e-15
	3.358315848827961e-07
	1.894674552419421e-05
	1.652316772346100e-06
	3.833781278885985e-01

 40	4.000000000000002e-01
	-1.627309241511469e-15
	-9.930500342522765e-19
	-4.673497659543088e-15
	3.682174629137922e-07
	2.126772061490726e-05
	1.853167068014561e-06
	3.833781490109726e-01

 41	4.100000000000002e-01
	-1.609608500861404e-15
	-1.028688006619820e-18
	-4.734262654575742e-15
	4.033035972330920e-07
	2.386757437755032e-05
	2.078597058549247e-06
	3.833781727184838e-01

 42	4.200000000000002e-01
	-1.592324221036811e-15
	-1.065479313228294e-18
	-4.794276147701603e-15
	4.412631209049724e-07
	2.677626231419405e-05
	2.331543397355596e-06
	3.833781993200240e-01

 43	4.300000000000002e-01
	-1.575457412710191e-15
	-1.103457781036194e-18
	-4.853513284837260e-15
	4.822746369858596e-07
	3.002588662368516e-05
	2.615253052732794e-06
	3.833782291571337e-01

 44	4.400000000000002e-01
	-1.559008498437877e-15
	-1.142658302357375e-18
	-4.911950928448099e-15
	5.265218566505471e-07
	3.365060939246353e-05
	2.933304379934122e-06
	3.833782626062150e-01

 45	4.500000000000002e-01
	-1.542977327055596e-15
	-1.183116878458287e-18
	-4.969567663897113e-15
	5.741931926159613e-07
	3.768650905883394e-05
	3.289627045998840e-06
	3.833783000806293e-01

 46	4.600000000000002e-01
	-1.527363189775437e-15
	-1.224870664921738e-18
	-5.026343799338363e-15
	6.254813108579581e-07
	4.217137395100426e-05
	3.688520208272567e-06
	3.833783420326113e-01

 47	4.700000000000003e-01
	-1.512164837829048e-15
	-1.267958018838573e-18
	-5.082261359418141e-15
	6.805826444071366e-07
	4.714442773429293e-05
	4.134668290386139e-06
	3.833783889549274e-01

 48	4.800000000000003e-01
	-1.497380501499002e-15
	-1.312418547892905e-18
	-5.137304073074967e-15
	7.396968737580466e-07
	5.264598304432871e-05
	4.633153654694308e-06
	3.833784413822111e-01

 49	4.900000000000003e-01
	-1.483007910378824e-15
	-1.358293161410452e-18
	-5.191457355754077e-15
	8.030263791095317e-07
	5.871702143475571e-05
	5.189465441888222e-06
	3.833784998918938e-01

 50	5.000000000000002e-01
	-1.469044314702178e-15
	-1.405624123444995e-18
	-5.244708286372192e-15
	8.707756702496025e-07
	6.539870001065388e-05
	5.809503840717507e-06
	3.833785651046491e-01

 51	5.100000000000002e-01
	-1.455486507583059e-15
	-1.454455107981392e-18
	-5.297045579384896e-15
	9.431508003849527e-07
	7.273178770690940e-05
	6.499579067194684e-06
	3.833786376842921e-01

 52	5.200000000000002e-01
	-1.442330848011344e-15
	-1.504831256340204e-18
	-5.348459552321632e-15
	1.020358770574638e-06
	8.075603703025081e-05
	7.266404376417355e-06
	3.833787183370372e-01

 53	5.300000000000002e-01
	-1.429573284451723e-15
	-1.556799236872661e-18
	-5.398942089162180e-15
	1.102606931643668e-06
	8.950950011247744e-05
	8.117082503453622e-06
	3.833788078100754e-01

 54	5.400000000000003e-01
	-1.417209378898843e-15
	-1.610407307041668e-18
	-5.448486599933673e-15
	1.190102390515644e-06
	9.902780099255717e-05
	9.059085033672533e-06
	3.833789068894010e-01

 55	5.500000000000003e-01
	-1.405234331246876e-15
	-1.665705377988961e-18
	-5.497087976909543e-15
	1.283051427808086e-06
	1.093433790073226e-04
	1.010022433713626e-05
	3.833790163968577e-01

 56	5.600000000000003e-01
	-1.393643003838298e-15
	-1.722745081696128e-18
	-5.544742547790204e-15
	1.381658933281699e-06
	1.204847208608010e-04
	1.124861786431534e-05
	3.833791371863791e-01

 57	5.700000000000003e-01
	-1.382429946063532e-15
	-1.781579840851695e-18
	-5.591448026241510e-15
	1.486127865332635e-06
	1.324756011919781e-04
	1.251264478787188e-05
	3.833792701394287e-01

 58	5.800000000000003e-01
	-1.371589418890752e-15
	-1.842264941545441e-18
	-5.637203460160184e-15
	1.596658740179899e-06
	1.453343531071026e-04
	1.390089518234584e-05
	3.833794161596468e-01

 59	5.900000000000003e-01
	-1.361115419213080e-15
	-1.904857608915830e-18
	-5.682009178026321e-15
	1.713449155748828e-06
	1.590731910402465e-04
	1.542211215348453e-05
	3.833795761667670e-01

 60	6.000000000000003e-01
	-1.351001703908706e-15
	-1.969417085886192e-18
	-5.725866733692065e-15
	1.836693354513424e-06
	1.736976083392387e-04
	1.708512755358180e-05
	3.833797510898399e-01

 61	6.100000000000003e-01
	-1.341241813517966e-15
	-2.036004715131108e-18
	-5.768778849942222e-15
	1.966581828764766e-06
	1.892058710681526e-04
	1.889879213946171e-05
	3.833799418598969e-01

 62	6.200000000000003e-01
	-1.331829095450018e-15
	-2.104684024424522e-18
	-5.810749361148532e-15
	2.103300970956120e-06
	2.055886276468502e-04
	2.087190123611099e-05
	3.833801494021158e-01

 63	6.300000000000003e-01
	-1.322756726640366e-15
	-2.175520815528759e-18
	-5.851783155323031e-15
	2.247032770968894e-06
	2.228286511417713e-04
	2.301311715183806e-05
	3.833803746276680e-01

 64	6.400000000000003e-01
	-1.314017735589025e-15
	-2.248583256793535e-18
	-5.891886115859470e-15
	2.397954561384393e-06
	2.409007273669275e-04
	2.533088974128854e-05
	3.833806184253531e-01

 65	6.500000000000004e-01
	-1.305605023717604e-15
	-2.323941979643638e-18
	-5.931065063233925e-15
	2.556238811161233e-06
	2.597716975904404e-04
	2.783337662280795e-05
	3.833808816532112e-01

 66	6.600000000000004e-01
	-1.297511385991720e-15
	-2.401670179144422e-18
	-5.969327696917674e-15
	2.722052967533877e-06
	2.794006597584981e-04
	3.052836462036413e-05
	3.833811651302543e-01

 67	6.700000000000004e-01
	-1.289729530763213e-15
	-2.481843718844870e-18
	-6.006682537736746e-15
	2.895559345480326e-06
	2.997393269702755e-04
	3.342319401341851e-05
	3.833814696285020e-01

 68	6.800000000000004e-01
	-1.282252098794211e-15
	-2.564541240110217e-18
	-6.043138870893937e-15
	3.076915063765709e-06
	3.207325367118593e-04
	3.652468713905586e-05
	3.833817958654751e-01

 69	6.900000000000004e-01
	-1.275071681432471e-15
	-2.649844276166876e-18
	-6.078706689850288e-15
	3.266272026354205e-06
	3.423188993386493e-04
	3.983908280016754e-05
	3.833821444972895e-01

 70	7.000000000000004e-01
	-1.268180837914381e-15
	-2.737837371096035e-18
	-6.113396641244378e-15
	3.463776947883455e-06
	3.644315697275247e-04
	4.337197779481933e-05
	3.833825161125177e-01

 71	7.100000000000004e-01
	-1.261572111778515e-15
	-2.828608204025211e-18
	-6.147219971009493e-15
	3.669571421900375e-06
	3.869991221196191e-04
	4.712827670080690e-05
	3.833829112269044e-01

 72	7.200000000000004e-01
	-1.255238046378791e-15
	-2.922247718780077e-18
	-6.180188471830784e-15
	3.883792030637031e-06
	4.099465051178887e-04
	5.111215083334967e-05
	3.833833302790500e-01

 73	7.300000000000004e-01
	-1.249171199492042e-15
	-3.018850259274124e-18
	-6.212314432066973e-15
	4.106570495236994e-06
	4.331960517164648e-04
	5.532700705208725e-05
	3.833837736271376e-01

 74	7.400000000000004e-01
	-1.243364157019977e-15
	-3.118513710927958e-18
	-6.243610586244338e-15
	4.338033865493126e-06
	4.566685181882812e-04
	5.977546683606481e-05
	3.833842415467376e-01

 75	7.500000000000004e-01
	-1.237809545790474e-15
	-3.221339648425842e-18
	-6.274090067214509e-15
	4.578304748300031e-06
	4.802841256516762e-04
	6.445935578272041e-05
	3.833847342296975e-01

 76	7.600000000000005e-01
	-1.232500045467466e-15
	-3.327433490133415e-18
	-6.303766360051816e-15
	4.827501574129475e-06
	5.039635791258547e-04
	6.937970342922024e-05
	3.833852517841330e-01

 77	7.700000000000005e-01
	-1.227428399582632e-15
	-3.436904659516780e-18
	-6.332653257751583e-15
	5.085738900886597e-06
	5.276290407694973e-04
	7.453675305138844e-05
	3.833857942354576e-01

 78	7.800000000000005e-01
	-1.222587425705767e-15
	-3.549866753921755e-18
	-6.360764818776352e-15
	5.353127754479206e-06
	5.512050366346660e-04
	7.992998087512293e-05
	3.833863615284097e-01

 79	7.900000000000005e-01
	-1.217970024773692e-15
	-3.666437721089912e-18
	-6.388115326484322e-15
	5.629776005328592e-06
	5.746192794895953e-04
	8.555812394437271e-05
	3.833869535299808e-01

 80	8.000000000000005e-01
	-1.213569189600390e-15
	-3.786740043807383e-18
	-6.414719250461776e-15
	5.915788779863001e-06
	5.978033938817461e-04
	9.141921573327601e-05
	3.833875700331654e-01

 81	8.100000000000005e-01
	-1.209378012593401e-15
	-3.910900933103130e-18
	-6.440591209770056e-15
	6.211268905776329e-06
	6.206935334368730e-04
	9.751062847101940e-05
	3.833882107614140e-01

 82	8.200000000000005e-01
	-1.205389692703404e-15
	-4.039052530433699e-18
	-6.465745938107305e-15
	6.516317389513565e-06
	6.432308842382322e-04
	1.038291210674226e-04
	3.833888753736759e-01

 83	8.300000000000005e-01
	-1.201597541635682e-15
	-4.171332119315778e-18
	-6.490198250875428e-15
	6.831033924083130e-06
	6.653620518385539e-04
	1.103708914846407e-04
	3.833895634699022e-01

 84	8.400000000000005e-01
	-1.197994989353338e-15
	-4.307882346888528e-18
	-6.513963014134378e-15
	7.155517424913384e-06
	6.870393328867625e-04
	1.171316323935193e-04
	3.833902745969077e-01

 85	8.500000000000005e-01
	-1.194575588903213e-15
	-4.448851455915582e-18
	-6.537055115417879e-15
	7.489866591091679e-06
	7.082208753930252e-04
	1.241065889787251e-04
	3.833910082544454e-01

 86	8.600000000000005e-01
	-1.191333020596132e-15
	-4.594393527760467e-18
	-6.559489436378002e-15
	7.834180488970598e-06
	7.288707342325950e-04
	1.312906178104595e-04
	3.833917639014006e-01

 87	8.700000000000006e-01
	-1.188261095573563e-15
	-4.744668736898091e-18
	-6.581280827219774e-15
	8.188559154818491e-06
	7.489588305564402e-04
	1.386782457774658e-04
	3.833925409619932e-01

 88	8.800000000000006e-01
	-1.185353758792980e-15
	-4.899843617553627e-18
	-6.602444082881915e-15
	8.553104212950385e-06
	7.684608253199940e-04
	1.462637281710020e-04
	3.833933388318749e-01

 89	8.900000000000006e-01
	-1.182605091464218e-15
	-5.060091343091274e-18
	-6.622993920915109e-15
	8.927919505608432e-06
	7.873579181711671e-04
	1.540411051171553e-04
	3.833941568840775e-01

 90	9.000000000000006e-01
	-1.180009312968878e-15
	-5.225592018806208e-18
	-6.642944961005605e-15
	9.313111730786129e-06
	8.056365834881798e-04
	1.620042556705049e-04
	3.833949944746953e-01

 91	9.100000000000006e-01
	-1.177560782294519e-15
	-5.396532988811752e-18
	-6.662311706088686e-15
	9.708791084202640e-06
	8.232882554747715e-04
	1.701469490009485e-04
	3.833958509482685e-01

 92	9.200000000000006e-01
	-1.175253999014744e-15
	-5.573109157743408e-18
	-6.681108524994158e-15
	1.011507190173795e-05
	8.403089739650792e-04
	1.784628922235793e-04
	3.833967256428145e-01

 93	9.300000000000006e-01
	-1.173083603845752e-15
	-5.755523328046098e-18
	-6.699349636564009e-15
	1.053207329883049e-05
	8.566990020286305e-04
	1.869457745354191e-04
	3.833976178944710e-01

 94	9.400000000000006e-01
	-1.171044378808987e-15
	-5.943986553647230e-18
	-6.717049095181156e-15
	1.095991980360686e-05
	8.724624256649675e-04
	1.955893074298309e-04
	3.833985270417248e-01

 95	9.500000000000006e-01
	-1.169131247028804e-15
	-6.138718510862014e-18
	-6.734220777647108e-15
	1.139874198084804e-05
	8.876067449032660e-04
	2.043872608575061e-04
	3.833994524292145e-01

 96	9.600000000000006e-01
	-1.167339272192976e-15
	-6.339947887423371e-18
	-6.750878371346102e-15
	1.184867704428664e-05
	9.021424645362070e-04
	2.133334952906607e-04
	3.834003934111003e-01

 97	9.700000000000006e-01
	-1.165663657702919e-15
	-6.547912790572628e-18
	-6.767035363633102e-15
	1.230986945515821e-05
	9.160826915737577e-04
	2.224219897235726e-04
	3.834013493540193e-01

 98	9.800000000000006e-01
	-1.164099745539423e-15
	-6.762861175203608e-18
	-6.782705032383342e-15
	1.278247150538928e-05
	9.294427453487166e-04
	2.316468657076567e-04
	3.834023196395927e-01

 99	9.900000000000007e-01
	-1.162643014868552e-15
	-6.985051293095552e-18
	-6.797900437641738e-15
	1.326664388426908e-05
	9.422397850797431e-04
	2.410024075727535e-04
	3.834033036665758e-01

 100	1.000000000000001e+00
	-1.161289080411238e-15
	-7.214752164335656e-18
	-6.812634414311303e-15
	1.376255622792787e-05
	9.544924586303876e-04
	2.504830790290187e-04
	3.834043008525923e-01

 101	1.010000000000001e+00
	-1.160033690598952e-15
	-7.452244072082622e-18
	-6.826919565820815e-15
	1.427038765139938e-05
	9.662205752155120e-04
	2.600835363760199e-04
	3.834053106355214e-01

 102	1.020000000000001e+00
	-1.158872725536670e-15
	-7.697819081886507e-18
	-6.840768258713293e-15
	1.479032726348508e-05
	9.774448039154039e-04
	2.697986385685978e-04
	3.834063324745607e-01

 103	1.030000000000001e+00
	-1.157802194793186e-15
	-7.951781586844873e-18
	-6.854192618098240e-15
	1.532257466505000e-05
	9.881863990712492e-04
	2.796234544035953e-04
	3.834073658509854e-01

 104	1.040000000000001e+00
	-1.156818235037667e-15
	-8.214448879941081e-18
	-6.867204523912282e-15
	1.586734043175552e-05
	9.984669529567174e-04
	2.895532670987459e-04
	3.834084102686220e-01

 105	1.050000000000001e+00
	-1.155917107540206e-15
	-8.486151754981210e-18
	-6.879815607934525e-15
	1.642484658257408e-05
	1.008308175548568e-03
	2.995835765359859e-04
	3.834094652540854e-01

 106	1.060000000000001e+00
	-1.155095195553091e-15
	-8.767235137621776e-18
	-6.892037251504620e-15
	1.699532703572930e-05
	1.017731700749954e-03
	3.097100994372164e-04
	3.834105303568057e-01

 107	1.070000000000001e+00
	-1.154349001588215e-15
	-9.058058748055682e-18
	-6.903880583893684e-15
	1.757902805396448e-05
	1.026758918046948e-03
	3.199287677321476e-04
	3.834116051488496e-01

 108	1.080000000000001e+00
	-1.153675144605250e-15
	-9.358997797008072e-18
	-6.915356481279785e-15
	1.817620868125799e-05
	1.035410828293022e-03
	3.302357253661144e-04
	3.834126892245817e-01

 109	1.090000000000001e+00
	-1.153070357123948e-15
	-9.670443716774889e-18
	-6.926475566281903e-15
	1.878714117328157e-05
	1.043707922108776e-03
	3.406273237815847e-04
	3.834137822001943e-01

 110	1.100000000000001e+00
	-1.152531482273119e-15
	-9.992804929130140e-18
	-6.937248208008126e-15
	1.941211142404205e-05
	1.051670079245150e-03
	3.511001162912529e-04
	3.834148837131175e-01

 111	1.110000000000001e+00
	-1.152055470787657e-15
	-1.032650765201745e-17
	-6.947684522575846e-15
	2.005141939125152e-05
	1.059316487177838e-03
	3.616508515435844e-04
	3.834159934213251e-01

 112	1.120000000000001e+00
	-1.151639377964295e-15
	-1.067199674704062e-17
	-6.957794374063623e-15
	2.070537952304959e-05
	1.066665577169247e-03
	3.722764662641904e-04
	3.834171110025762e-01

 113	1.130000000000001e+00
	-1.151280360585710e-15
	-1.102973660986740e-17
	-6.967587375856345e-15
	2.137432118875363e-05
	1.073734976043406e-03
	3.829740774387994e-04
	3.834182361535908e-01

 114	1.140000000000001e+00
	-1.150975673821810e-15
	-1.140021210576754e-17
	-6.977072892347267e-15
	2.205858911633886e-05
	1.080541471960319e-03
	3.937409740862095e-04
	3.834193685891830e-01

 115	1.150000000000001e+00
	-1.150722668116221e-15
	-1.178392955261319e-17
	-6.986260040962255e-15
	2.275854383936127e-05
	1.087100992542350e-03
	4.045746087528000e-04
	3.834205080413728e-01

 116	1.160000000000001e+00
	-1.150518786065226e-15
	-1.218141775378794e-17
	-6.995157694473515e-15
	2.347456215603221e-05
	1.093428593789935e-03
	4.154725888441559e-04
	3.834216542584624e-01

 117	1.170000000000001e+00
	-1.150361559295654e-15
	-1.259322908356071e-17
	-7.003774483571773e-15
	2.420703760313168e-05
	1.099538458321342e-03
	4.264326678941356e-04
	3.834228070041333e-01

 118	1.180000000000001e+00
	-1.150248605347501e-15
	-1.301994062761372e-17
	-7.012118799667697e-15
	2.495638094742921e-05
	1.105443901577451e-03
	4.374527368577121e-04
	3.834239660565164e-01

 119	1.190000000000001e+00
	-1.150177624566494e-15
	-1.346215538152723e-17
	-7.020198797894842e-15
	2.572302069724344e-05
	1.111157384742614e-03
	4.485308155007608e-04
	3.834251312072948e-01

 120	1.200000000000001e+00
	-1.150146397011053e-15
	-1.392050351016442e-17
	-7.028022400288234e-15
	2.650740363674360e-05
	1.116690533244644e-03
	4.596650439481428e-04
	3.834263022608099e-01

 121	1.210000000000001e+00
	-1.150152779377691e-15
	-1.439564367102553e-17
	-7.035597299114013e-15
	2.730999538555992e-05
	1.122054159807216e-03
	4.708536744405636e-04
	3.834274790331970e-01

 122	1.220000000000001e+00
	-1.150194701948074e-15
	-1.488826440478162e-17
	-7.042930960327362e-15
	2.813128098623967e-05
	1.127258291135390e-03
	4.820950633410022e-04
	3.834286613515459e-01

 123	1.230000000000001e+00
	-1.150270165560814e-15
	-1.539908559633551e-17
	-7.050030627136921e-15
	2.897176552205738e-05
	1.132312197417504e-03
	4.933876634228222e-04
	3.834298490530861e-01

 124	1.240000000000001e+00
	-1.150377238610189e-15
	-1.592886000990199e-17
	-7.056903323655749e-15
	2.983197476766409e-05
	1.137224423923641e-03
	5.047300164640033e-04
	3.834310419844084e-01

 125	1.250000000000001e+00
	-1.150514054073843e-15
	-1.647837490174046e-17
	-7.063555858619700e-15
	3.071245587504395e-05
	1.142002824071437e-03
	5.161207461652029e-04
	3.834322400007226e-01

 126	1.260000000000001e+00
	-1.150678806570906e-15
	-1.704845371432370e-17
	-7.069994829155721e-15
	3.161377809723719e-05
	1.146654593413735e-03
	5.275585514034969e-04
	3.834334429651488e-01

 127	1.270000000000001e+00
	-1.150869749451618e-15
	-1.763995785586849e-17
	-7.076226624583502e-15
	3.253653355228782e-05
	1.151186304079451e-03
	5.390421998286087e-04
	3.834346507480343e-01

 128	1.280000000000001e+00
	-1.151085191919256e-15
	-1.825378856930141e-17
	-7.082257430235018e-15
	3.348133802987364e-05
	1.155603939268698e-03
	5.505705218040196e-04
	3.834358632263314e-01

 129	1.290000000000001e+00
	-1.151323496184693e-15
	-1.889088889488001e-17
	-7.088093231277685e-15
	3.444883184310450e-05
	1.159912927466559e-03
	5.621424046918596e-04
	3.834370802829809e-01

 130	1.300000000000001e+00
	-1.151583074653699e-15
	-1.955224573082795e-17
	-7.093739816527682e-15
	3.543968072798145e-05
	1.164118176096008e-03
	5.737567874771975e-04
	3.834383018063602e-01

 131	1.310000000000001e+00
	-1.151862387146742e-15
	-2.023889199648353e-17
	-7.099202782241009e-15
	3.645457679305756e-05
	1.168224104381150e-03
	5.854126557250217e-04
	3.834395276897434e-01

 132	1.320000000000001e+00
	-1.152159938150823e-15
	-2.095190890259289e-17
	-7.104487535870697e-15
	3.749423952187065e-05
	1.172234675236149e-03
	5.971090368609894e-04
	3.834407578308063e-01

 133	1.330000000000001e+00
	-1.152474274102624e-15
	-2.169242833350161e-17
	-7.109599299779350e-15
	3.855941683077173e-05
	1.176153426034329e-03
	6.088449957654521e-04
	3.834419921311694e-01

 134	1.340000000000001e+00
	-1.152803980701996e-15
	-2.246163534611681e-17
	-7.114543114897009e-15
	3.965088618483136e-05
	1.179983498146074e-03
	6.206196306689824e-04
	3.834432304959592e-01

 135	1.350000000000001e+00
	-1.153147680254633e-15
	-2.326077079060938e-17
	-7.119323844315092e-15
	4.076945577456765e-05
	1.183727665163539e-03
	6.324320693366520e-04
	3.834444728334108e-01

 136	1.360000000000001e+00
	-1.153504029042644e-15
	-2.409113405791557e-17
	-7.123946176807683e-15
	4.191596575631157e-05
	1.187388359755630e-03
	6.442814655276128e-04
	3.834457190544888e-01

 137	1.370000000000001e+00
	-1.153871714721529e-15
	-2.495408595916297e-17
	-7.128414630272173e-15
	4.309128955910236e-05
	1.190967699118327e-03
	6.561669957160961e-04
	3.834469690725545e-01

 138	1.380000000000001e+00
	-1.154249453741889e-15
	-2.585105174219219e-17
	-7.132733555081825e-15
	4.429633526109230e-05
	1.194467509003821e-03
	6.680878560597151e-04
	3.834482228030338e-01

 139	1.390000000000001e+00
	-1.154635988794255e-15
	-2.678352425036167e-17
	-7.136907137343339e-15
	4.553204703851823e-05
	1.197889346327152e-03
	6.800432596007905e-04
	3.834494801631370e-01

 140	1.400000000000001e+00
	-1.155030086275040e-15
	-2.775306722881204e-17
	-7.140939402053073e-15
	4.679940669040039e-05
	1.201234520361968e-03
	6.920324336865988e-04
	3.834507410715720e-01

 141	1.410000000000001e+00
	-1.155430533771953e-15
	-2.876131878331187e-17
	-7.144834216145844e-15
	4.809943524220649e-05
	1.204504112547223e-03
	7.040546175944559e-04
	3.834520054483066e-01

 142	1.420000000000001e+00
	-1.155836137566713e-15
	-2.980999499671629e-17
	-7.148595291430978e-15
	4.943319463182567e-05
	1.207698994935233e-03
	7.161090603479621e-04
	3.834532732143325e-01

 143	1.430000000000001e+00
	-1.156245720153251e-15
	-3.090089370792402e-17
	-7.152226187410480e-15
	5.080178948128126e-05
	1.210819847318055e-03
	7.281950187109808e-04
	3.834545442914560e-01

 144	1.440000000000001e+00
	-1.156658117769432e-15
	-3.203589845801844e-17
	-7.155730313974526e-15
	5.220636895770261e-05
	1.213867173074268e-03
	7.403117553463342e-04
	3.834558186021046e-01

 145	1.450000000000001e+00
	-1.157072177940289e-15
	-3.321698260800883e-17
	-7.159110933970154e-15
	5.364812872716234e-05
	1.216841313782119e-03
	7.524585371266741e-04
	3.834570960691518e-01

 146	1.460000000000001e+00
	-1.157486757030991e-15
	-3.444621363225016e-17
	-7.162371165639045e-15
	5.512831300506438e-05
	1.219742462647654e-03
	7.646346335854292e-04
	3.834583766157492e-01

 147	1.470000000000001e+00
	-1.157900717807695e-15
	-3.572575759118818e-17
	-7.165513984920893e-15
	5.664821670683271e-05
	1.222570676798194e-03
	7.768393154962282e-04
	3.834596601651805e-01

 148	1.480000000000001e+00
	-1.158312927004709e-15
	-3.705788378655727e-17
	-7.168542227618954e-15
	5.820918770271171e-05
	1.225325888492507e-03
	7.890718535697227e-04
	3.834609466407236e-01

 149	1.490000000000001e+00
	-1.158722252896320e-15
	-3.844496960152428e-17
	-7.171458591425049e-15
	5.981262918052692e-05
	1.228007915299321e-03
	8.013315172572380e-04
	3.834622359655235e-01

 150	1.500000000000001e+00
	-1.159127562872136e-15
	-3.988950552751844e-17
	-7.174265637801164e-15
	6.146000212027384e-05
	1.230616469295509e-03
	8.136175736511874e-04
	3.834635280624796e-01

 151	1.510000000000001e+00
	-1.159527721014688e-15
	-4.139410037859915e-17
	-7.176965793715687e-15
	6.315282788440423e-05
	1.233151165334672e-03
	8.259292864727245e-04
	3.834648228541352e-01

 152	1.520000000000001e+00
	-1.159921585678615e-15
	-4.296148669316864e-17
	-7.179561353232156e-15
	6.489269092764066e-05
	1.235611528435706e-03
	8.382659151375731e-04
	3.834661202625851e-01

 153	1.530000000000001e+00
	-1.160308007070853e-15
	-4.459452632162959e-17
	-7.182054478949196e-15