Title: ** sch_path: /home/andylithia/openmpw/project-yatsuhashi-chip1/xschem/gmid_test/nmos_test.sch
Date: Tue Jul 19 23:15:45  2022
Plotname: DC transfer characteristic
Flags: real
No. Variables: 8
No. Points: 181
Variables:
	0	v(v-sweep)	voltage
	1	@m.xm1.msky130_fd_pr__nfet_01v8[cgb]	capacitance
	2	@m.xm1.msky130_fd_pr__nfet_01v8[cgd]	capacitance
	3	@m.xm1.msky130_fd_pr__nfet_01v8[cgs]	capacitance
	4	@m.xm1.msky130_fd_pr__nfet_01v8[gds]	admittance
	5	@m.xm1.msky130_fd_pr__nfet_01v8[gm]	admittance
	6	i(@m.xm1.msky130_fd_pr__nfet_01v8[id])	current
	7	v(@m.xm1.msky130_fd_pr__nfet_01v8[vth])	voltage
Values:
 0	0.000000000000000e+00
	-4.620863975227225e-15
	-4.954176048833195e-20
	-5.491952965434861e-15
	2.755997135864217e-08
	1.209808267075080e-06
	1.264734726344732e-07
	3.170495808261960e-01

 1	1.000000000000000e-02
	-4.570611298492778e-15
	-5.275396899712084e-20
	-5.603490047904549e-15
	3.028766773379543e-08
	1.329048224888103e-06
	1.391585798696049e-07
	3.170495818339788e-01

 2	2.000000000000000e-02
	-4.520702406554415e-15
	-5.610060722315229e-20
	-5.715669525958887e-15
	3.327658354992424e-08
	1.459808341236020e-06
	1.530928130084210e-07
	3.170495829412588e-01

 3	3.000000000000000e-02
	-4.471154121381815e-15
	-5.958484674480839e-20
	-5.828440017922306e-15
	3.655048104158318e-08
	1.603186051572788e-06
	1.683967767600873e-07
	3.170495841576999e-01

 4	4.000000000000000e-02
	-4.421983306147359e-15
	-6.320985298222285e-20
	-5.941749169965107e-15
	4.013511032396715e-08
	1.760384384241198e-06
	1.852025695750790e-07
	3.170495854938855e-01

 5	5.000000000000000e-02
	-4.373206822921145e-15
	-6.697878303855882e-20
	-6.055543745463190e-15
	4.405835256131538e-08
	1.932722766168589e-06
	2.036548926183562e-07
	3.170495869614336e-01

 6	6.000000000000000e-02
	-4.324841490418131e-15
	-7.089478365313002e-20
	-6.169769717323464e-15
	4.835037048752575e-08
	2.121649069783147e-06
	2.239122728805833e-07
	3.170495885730794e-01

 7	7.000000000000001e-02
	-4.276904041946060e-15
	-7.496098927691174e-20
	-6.284372362960377e-15
	5.304376628331154e-08
	2.328753057646798e-06
	2.461484136065782e-07
	3.170495903427973e-01

 8	8.000000000000000e-02
	-4.229411083703802e-15
	-7.918052028077370e-20
	-6.399296361594292e-15
	5.817374675894733e-08
	2.555781400036692e-06
	2.705536868776240e-07
	3.170495922859220e-01

 9	9.000000000000000e-02
	-4.182379053579109e-15
	-8.355648130610764e-20
	-6.514485893528680e-15
	6.377829572965818e-08
	2.804654460938077e-06
	2.973367850363499e-07
	3.170495944192904e-01

 10	9.999999999999999e-02
	-4.135824180593762e-15
	-8.809195976697532e-20
	-6.629884741051299e-15
	6.989835340188009e-08
	3.077485069545170e-06
	3.267265497044534e-07
	3.170495967613904e-01

 11	1.100000000000000e-01
	-4.089762445141750e-15
	-9.279002451216780e-20
	-6.745436390594998e-15
	7.657800251285372e-08
	3.376599517239220e-06
	3.589739994277813e-07
	3.170495993325382e-01

 12	1.200000000000000e-01
	-4.044209540163080e-15
	-9.765372465501482e-20
	-6.861084135786247e-15
	8.386466088323056e-08
	3.704561043876224e-06
	3.943545795013829e-07
	3.170496021550644e-01

 13	1.300000000000000e-01
	-3.999180833391839e-15
	-1.026860885778374e-19
	-6.976771181004096e-15
	9.180927995264387e-08
	4.064196101723278e-06
	4.331706602874166e-07
	3.170496052535324e-01

 14	1.400000000000000e-01
	-3.954691330812173e-15
	-1.078901231173600e-19
	-7.092440745069474e-15
	1.004665487716424e-07
	4.458623710066125e-06
	4.757543133454426e-07
	3.170496086549672e-01

 15	1.500000000000000e-01
	-3.910755641450201e-15
	-1.132688129362612e-19
	-7.208036164683463e-15
	1.098951028201645e-07
	4.891288237766881e-06
	5.224703979462517e-07
	3.170496123891369e-01

 16	1.600000000000000e-01
	-3.867387943623174e-15
	-1.188251200856386e-19
	-7.323500997235932e-15
	1.201577369133314e-07
	5.365995974129312e-06
	5.737199940298839e-07
	3.170496164888251e-01

 17	1.700000000000000e-01
	-3.824601952760347e-15
	-1.245619837616803e-19
	-7.438779122607619e-15
	1.313216213398460e-07
	5.886955869384749e-06
	6.299442213778270e-07
	3.170496209901937e-01

 18	1.800000000000000e-01
	-3.782410890901310e-15
	-1.304823202595891e-19
	-7.553814843598153e-15
	1.434585202577453e-07
	6.458824843845077e-06
	6.916284886747265e-07
	3.170496259331242e-01

 19	1.900000000000000e-01
	-3.740827457969800e-15
	-1.365890231263332e-19
	-7.668552984617256e-15
	1.566450112466241e-07
	7.086758077920978e-06
	7.593072201936990e-07
	3.170496313616541e-01

 20	2.000000000000000e-01
	-3.699863804911010e-15
	-1.428849635132622e-19
	-7.782938988290114e-15
	1.709627047862142e-07
	7.776464702258598e-06
	8.335691120024326e-07
	3.170496373244324e-01

 21	2.100000000000000e-01
	-3.659531508771446e-15
	-1.493729907285296e-19
	-7.896919009638583e-15
	1.864984622985699e-07
	8.534269306400808e-06
	9.150629737811512e-07
	3.170496438752345e-01

 22	2.200000000000001e-01
	-3.619841549789740e-15
	-1.560559329884965e-19
	-8.010440007515098e-15
	2.033446112564502e-07
	9.367179673642758e-06
	1.004504216481780e-06
	3.170496510735533e-01

 23	2.300000000000001e-01
	-3.580804290556855e-15
	-1.629365983662750e-19
	-8.123449832983003e-15
	2.215991557248010e-07
	1.028296112689124e-05
	1.102682050029653e-06
	3.170496589852381e-01

 24	2.400000000000001e-01
	-3.542429457293139e-15
	-1.700177759348975e-19
	-8.235897314354597e-15
	2.413659805665256e-07
	1.129021783291085e-05
	1.210467458940910e-06
	3.170496676832212e-01

 25	2.500000000000001e-01
	-3.504726123279114e-15
	-1.773022371016647e-19
	-8.347732338618206e-15
	2.627550474096073e-07
	1.239848135773600e-05
	1.328822026942759e-06
	3.170496772483138e-01

 26	2.600000000000001e-01
	-3.467702694465844e-15
	-1.847927371294367e-19
	-8.458905929006281e-15
	2.858825803411378e-07
	1.361830669148119e-05
	1.458807684253131e-06
	3.170496877701206e-01

 27	2.700000000000001e-01
	-3.431366897279827e-15
	-1.924920168400807e-19
	-8.569370318479814e-15
	3.108712391669870e-07
	1.496137586346959e-05
	1.601597452889606e-06
	3.170496993480174e-01

 28	2.800000000000001e-01
	-3.395725768626656e-15
	-2.004028044943254e-19
	-8.679079018926211e-15
	3.378502779545889e-07
	1.644060914565490e-05
	1.758487265988924e-06
	3.170497120922620e-01

 29	2.900000000000001e-01
	-3.360785648087099e-15
	-2.085278178419728e-19
	-8.787986885892776e-15
	3.669556864631886e-07
	1.807028369101856e-05
	1.930908936362123e-06
	3.170497261252165e-01

 30	3.000000000000001e-01
	-3.326552172288624e-15
	-2.168697663354934e-19
	-8.896050178702668e-15
	3.983303119622009e-07
	1.986615927142972e-05
	2.120444347086486e-06
	3.170497415827039e-01

 31	3.100000000000001e-01
	-3.293030271425623e-15
	-2.254313534999037e-19
	-9.003226615825010e-15
	4.321239588464123e-07
	2.184561056420276e-05
	2.328840932525683e-06
	3.170497586154857e-01

 32	3.200000000000001e-01
	-3.260224167891847e-15
	-2.342152794509971e-19
	-9.109475425395952e-15
	4.684934633783490e-07
	2.402776518661524e-05
	2.558028511431873e-06
	3.170497773909081e-01

 33	3.300000000000001e-01
	-3.228137376979220e-15
	-2.432242435540112e-19
	-9.214757390813746e-15
	5.076027408262304e-07
	2.643364639206876e-05
	2.810137524369711e-06
	3.170497980946927e-01

 34	3.400000000000001e-01
	-3.196772709588695e-15
	-2.524609472141193e-19
	-9.319034891355083e-15
	5.496228022220445e-07
	2.908631902035482e-05
	3.087518715249876e-06
	3.170498209328926e-01

 35	3.500000000000001e-01
	-3.166132276890580e-15
	-2.619280967901331e-19
	-9.422271937785327e-15
	5.947317379416198e-07
	3.201103693882845e-05
	3.392764280920818e-06
	3.170498461340358e-01

 36	3.600000000000002e-01
	-3.136217496864305e-15
	-2.716284066226686e-19
	-9.524434202959656e-15
	6.431146653096439e-07
	3.523538982376888e-05
	3.728730493208727e-06
	3.170498739514336e-01

 37	3.700000000000002e-01
	-3.107029102640618e-15
	-2.815646021676473e-19
	-9.625489047435440e-15
	6.949636374599002e-07
	3.878944671602363e-05
	4.098561774215425e-06
	3.170499046656890e-01

 38	3.800000000000002e-01
	-3.078567152563174e-15
	-2.917394232262081e-19
	-9.725405540139193e-15
	7.504775107378942e-07
	4.270589334833282e-05
	4.505716177838247e-06
	3.170499385873867e-01

 39	3.900000000000002e-01
	-3.050831041880825e-15
	-3.021556272620692e-19
	-9.824154474153158e-15
	8.098617680220595e-07
	4.702015979170201e-05
	4.953992198185209e-06
	3.170499760599841e-01

 40	4.000000000000002e-01
	-3.023819515977260e-15
	-3.128159927974274e-19
	-9.921708377707414e-15
	8.733282954642771e-07
	5.177053451536319e-05
	5.447556788744282e-06
	3.170500174628750e-01

 41	4.100000000000002e-01
	-2.997530685040499e-15
	-3.237233228784783e-19
	-1.001804152048245e-14
	9.410951103128606e-07
	5.699826051209930e-05
	5.990974434856539e-06
	3.170500632146623e-01

 42	4.200000000000002e-01
	-2.971962040071505e-15
	-3.348804486023450e-19
	-1.011312991534594e-14
	1.013386037685429e-06
	6.274760872343560e-05
	6.589237076424173e-06
	3.170501137765703e-01

 43	4.300000000000002e-01
	-2.947110470128534e-15
	-3.462902326966561e-19
	-1.020695131566349e-14
	1.090430334406292e-06
	6.906592362508562e-05
	7.247794628185216e-06
	3.170501696560460e-01

 44	4.400000000000002e-01
	-2.922972280701966e-15
	-3.579555731441176e-19
	-1.029948520833881e-14
	1.172462258317641e-06
	7.600363552219037e-05
	7.972585791853763e-06
	3.170502314104757e-01

 45	4.500000000000002e-01
	-2.899543213113131e-15
	-3.698794068441921e-19
	-1.039071280275261e-14
	1.259720581816086e-06
	8.361423387809440e-05
	8.770068798684302e-06
	3.170502996510189e-01

 46	4.600000000000002e-01
	-2.876818464830204e-15
	-3.820647133047187e-19
	-1.048061701578112e-14
	1.352448048759135e-06
	9.195419588307707e-05
	9.647251663550731e-06
	3.170503750465118e-01

 47	4.700000000000003e-01
	-2.854792710594361e-15
	-3.945145183564604e-19
	-1.056918245308637e-14
	1.450890774329981e-06
	1.010828644846495e-04
	1.061172147363386e-05
	3.170504583274052e-01

 48	4.800000000000003e-01
	-2.833460124249975e-15
	-4.072318978843544e-19
	-1.065639538687909e-14
	1.555297587944633e-06
	1.110622702728029e-04
	1.167167217773948e-05
	3.170505502896743e-01

 49	4.900000000000003e-01
	-2.812814401174312e-15
	-4.202199815692146e-19
	-1.074224373036230e-14
	1.665919319831196e-06
	1.219568919648170e-04
	1.283593028779921e-05
	3.170506517986639e-01

 50	5.000000000000002e-01
	-2.792848781203568e-15
	-4.334819566347425e-19
	-1.082671700907017e-14
	1.783008032506780e-06
	1.338333507856153e-04
	1.411397785415256e-05
	3.170507637927685e-01

 51	5.100000000000002e-01
	-2.773556071954959e-15
	-4.470210715946016e-19
	-1.090980632932038e-14
	1.906816199018279e-06
	1.467600348080209e-04
	1.551597203284929e-05
	3.170508872868960e-01

 52	5.200000000000002e-01
	-2.754928672447028e-15
	-4.608406399953561e-19
	-1.099150434400162e-14
	2.037595830496219e-06
	1.608066503145996e-04
	1.705276052869574e-05
	3.170510233756217e-01

 53	5.300000000000002e-01
	-2.736958596923764e-15
	-4.749440441510430e-19
	-1.107180521591902e-14
	2.175597556289413e-06
	1.760436984742678e-04
	1.873589217441633e-05
	3.170511732359369e-01

 54	5.400000000000003e-01
	-2.719637498791712e-15
	-4.893347388663782e-19
	-1.115070457892059e-14
	2.321069660694835e-06
	1.925418770897498e-04
	2.057762189645150e-05
	3.170513381294846e-01

 55	5.500000000000003e-01
	-2.702956694583048e-15
	-5.040162551451807e-19
	-1.122819949702655e-14
	2.474257081062298e-06
	2.103714088540311e-04
	2.259090932382230e-05
	3.170515194042001e-01

 56	5.600000000000003e-01
	-2.686907187862099e-15
	-5.189922038821338e-19
	-1.130428842178097e-14
	2.635400372827616e-06
	2.296012994326702e-04
	2.478941032026743e-05
	3.170517184952270e-01

 57	5.700000000000003e-01
	-2.671479692996835e-15
	-5.342662795354409e-19
	-1.137897114804166e-14
	2.804734647796168e-06
	2.502985307300161e-04
	2.718746076327979e-05
	3.170519369250104e-01

 58	5.800000000000003e-01
	-2.656664658721709e-15
	-5.498422637794736e-19
	-1.145224876842021e-14
	2.982488492749158e-06
	2.725271968557207e-04
	2.980005195817085e-05
	3.170521763024394e-01

 59	5.900000000000003e-01
	-2.642452291423050e-15
	-5.657240291358569e-19
	-1.152412362657764e-14
	3.168882876159650e-06
	2.963475925262415e-04
	3.264279716173418e-05
	3.170524383209817e-01

 60	6.000000000000003e-01
	-2.628832578082793e-15
	-5.819155425826984e-19
	-1.159459926957627e-14
	3.364130051470611e-06
	3.218152658471556e-04
	3.573188879877146e-05
	3.170527247556666e-01

 61	6.100000000000003e-01
	-2.615795308821403e-15
	-5.984208691418099e-19
	-1.166368039948029e-14
	3.568432465982359e-06
	3.489800495492696e-04
	3.908404608518537e-05
	3.170530374588503e-01

 62	6.200000000000003e-01
	-2.603330098985928e-15
	-6.152441754436464e-19
	-1.173137282439053e-14
	3.781981684906110e-06
	3.778850867117767e-04
	4.271645292230120e-05
	3.170533783547350e-01

 63	6.300000000000003e-01
	-2.591426410733636e-15
	-6.323897332709908e-19
	-1.179768340909092e-14
	4.004957340546919e-06
	4.085658687123480e-04
	4.664668609645725e-05
	3.170537494325311e-01

 64	6.400000000000003e-01
	-2.580073574066966e-15
	-6.498619230816618e-19
	-1.186262002547539e-14
	4.237526116863354e-06
	4.410493045096565e-04
	5.089263400265996e-05
	3.170541527382928e-01

 65	6.500000000000004e-01
	-2.569260807280089e-15
	-6.676652375116278e-19
	-1.192619150291527e-14
	4.479840779801323e-06
	4.753528413059427e-04
	5.547240630746117e-05
	3.170545903654104e-01

 66	6.600000000000004e-01
	-2.558977236782147e-15
	-6.858042848594959e-19
	-1.198840757871827e-14
	4.732039263799101e-06
	5.114836570808645e-04
	6.040423516949207e-05
	3.170550644438069e-01

 67	6.700000000000004e-01
	-2.549211916266645e-15
	-7.042837925542239e-19
	-1.204927884882112e-14
	4.994243824701757e-06
	5.494379453716738e-04
	6.570636884101407e-05
	3.170555771278720e-01

 68	6.800000000000004e-01
	-2.539953845201297e-15
	-7.231086106075148e-19
	-1.210881671884811e-14
	5.266560268994816e-06
	5.892003119538299e-04
	7.139695867449633e-05
	3.170561305832849e-01

 69	6.900000000000004e-01
	-2.531191986616307e-15
	-7.422837150526911e-19
	-1.216703335565959e-14
	5.549077268770823e-06
	6.307433017277804e-04
	7.749394074851927e-05
	3.170567269728119e-01

 70	7.000000000000004e-01
	-2.522915284173668e-15
	-7.618142113726620e-19
	-1.222394163950426e-14
	5.841865771172915e-06
	6.740270721417860e-04
	8.401491350081716e-05
	3.170573684412578e-01

 71	7.100000000000004e-01
	-2.515112678503604e-15
	-7.817053379184497e-19
	-1.227955511688085e-14
	6.144978510225606e-06
	7.189992269046185e-04
	9.097701290691376e-05
	3.170580570997724e-01

 72	7.200000000000004e-01
	-2.507773122798199e-15
	-8.019624693215487e-19
	-1.233388795420557e-14
	6.458449627972798e-06
	7.655948206193457e-04
	9.839678686482151e-05
	3.170587950097018e-01

 73	7.300000000000004e-01
	-2.500885597655566e-15
	-8.225911199019658e-19
	-1.238695489237316e-14
	6.782294410708580e-06
	8.137365413796142e-04
	1.062900705345146e-04
	3.170595841662657e-01

 74	7.400000000000004e-01
	-2.494439125171251e-15
	-8.435969470755586e-19
	-1.243877120229120e-14
	7.116509144828926e-06
	8.633350744170129e-04
	1.146718644312963e-04
	3.170604264822505e-01

 75	7.500000000000004e-01
	-2.488422782276779e-15
	-8.649857547627907e-19
	-1.248935264145864e-14
	7.461071095468709e-06
	9.142896456953186e-04
	1.235562170816141e-04
	3.170613237720575e-01

 76	7.600000000000005e-01
	-2.482825713327717e-15
	-8.867634968032366e-19
	-1.253871541165247e-14
	7.815938609649107e-06
	9.664887400543102e-04
	1.329561140167958e-04
	3.170622777362975e-01

 77	7.700000000000005e-01
	-2.477637141946817e-15
	-9.089362803782895e-19
	-1.258687611777807e-14
	8.181051344166849e-06
	1.019810984259451e-03
	1.428833748041859e-04
	3.170632899472399e-01

 78	7.800000000000005e-01
	-2.472846382129656e-15
	-9.315103694468021e-19
	-1.263385172793219e-14
	8.556330616941367e-06
	1.074126181264377e-03
	1.533485596975903e-04
	3.170643618353462e-01

 79	7.900000000000005e-01
	-2.468442848622832e-15
	-9.544921881968206e-19
	-1.267965953472010e-14
	8.941679879028784e-06
	1.129296478285719e-03
	1.643608873325349e-04
	3.170654946771036e-01

 80	8.000000000000005e-01
	-2.464416066586674e-15
	-9.778883245184899e-19
	-1.272431711786191e-14
	9.336985303038986e-06
	1.185177648056181e-03
	1.759281647006149e-04
	3.170666895843856e-01

 81	8.100000000000005e-01
	-2.460755680556085e-15
	-1.001705533502281e-18
	-1.276784230811677e-14
	9.742116482287135e-06
	1.241620459976707e-03
	1.880567304166688e-04
	3.170679474954879e-01

 82	8.200000000000005e-01
	-2.457451462715153e-15
	-1.025950740967737e-18
	-1.281025315254734e-14
	1.015692723369721e-05
	1.298472115920725e-03
	2.007514120488726e-04
	3.170692691679973e-01

 83	8.300000000000005e-01
	-2.454493320502153e-15
	-1.050631047027598e-18
	-1.285156788114142e-14
	1.058125649628048e-05
	1.355577724214761e-03
	2.140154980223858e-04
	3.170706551735620e-01

 84	8.400000000000005e-01
	-2.451871303563301e-15
	-1.075753729693196e-18
	-1.289180487480168e-14
	1.101492931595370e-05
	1.412781784859527e-03
	2.278507243393060e-04
	3.170721058946611e-01

 85	8.500000000000005e-01
	-2.449575610074363e-15
	-1.101326248526546e-18
	-1.293098263470964e-14
	1.145775790656417e-05
	1.469929659363307e-03
	2.422572760893127e-04
	3.170736215233486e-01

 86	8.600000000000005e-01
	-2.447596592450436e-15
	-1.127356248345146e-18
	-1.296911975306480e-14
	1.190954277625826e-05
	1.526868999601518e-03
	2.572338034638110e-04
	3.170752020619833e-01

 87	8.700000000000006e-01
	-2.445924762464872e-15
	-1.153851562985708e-18
	-1.300623488519510e-14
	1.237007390778422e-05
	1.583451111833184e-03
	2.727774517389218e-04
	3.170768473258632e-01

 88	8.800000000000006e-01
	-2.444550795799041e-15
	-1.180820219133406e-18
	-1.304234672303078e-14
	1.283913198095757e-05
	1.639532234310751e-03
	2.888839044654005e-04
	3.170785569476754e-01

 89	8.900000000000006e-01
	-2.443465536045104e-15
	-1.208270440222412e-18
	-1.307747396992936e-14
	1.331648962534442e-05
	1.694974709711060e-03
	3.055474389020590e-04
	3.170803303836479e-01

 90	9.000000000000006e-01
	-2.442659998184397e-15
	-1.236210650415375e-18
	-1.311163531683563e-14
	1.380191269122948e-05
	1.749648036774569e-03
	3.227609925576626e-04
	3.170821669212157e-01

 91	9.100000000000006e-01
	-2.442125371564217e-15
	-1.264649478667488e-18
	-1.314484941975743e-14
	1.429516152712261e-05
	1.803429788942668e-03
	3.405162395675838e-04
	3.170840656880876e-01

 92	9.200000000000006e-01
	-2.441853022396092e-15
	-1.293595762882648e-18
	-1.317713487853406e-14
	1.479599225241656e-05
	1.856206391304576e-03
	3.588036755277010e-04
	3.170860256624594e-01

 93	9.300000000000006e-01
	-2.441834495798437e-15
	-1.323058554167977e-18
	-1.320851021687210e-14
	1.530415801431478e-05
	1.907873750683884e-03
	3.776127093393264e-04
	3.170880456842282e-01

 94	9.400000000000006e-01
	-2.442061517406716e-15
	-1.353047121193725e-18
	-1.323899386362006e-14
	1.581941021879793e-05
	1.958337737100952e-03
	3.969317605851500e-04
	3.170901244669692e-01

 95	9.500000000000006e-01
	-2.442525994573809e-15
	-1.383570954664928e-18
	-1.326860413525151e-14
	1.634149972616192e-05
	2.007514518042321e-03
	4.167483609552604e-04
	3.170922606105039e-01

 96	9.600000000000006e-01
	-2.443220017183184e-15
	-1.414639771911772e-18
	-1.329735921952408e-14
	1.687017800252552e-05
	2.055330749872577e-03
	4.370492582719717e-04
	3.170944526138247e-01

 97	9.700000000000006e-01
	-2.444135858097258e-15
	-1.446263521604981e-18
	-1.332527716027988e-14
	1.740519821964827e-05
	2.101723633274516e-03
	4.578205217190512e-04
	3.170966988882227e-01

 98	9.800000000000006e-01
	-2.445265973262677e-15
	-1.478452388602739e-18
	-1.335237584335182e-14
	1.794631629639865e-05
	2.146640841757440e-03
	4.790476469613003e-04
	3.170989977704113e-01

 99	9.900000000000007e-01
	-2.446603001494042e-15
	-1.511216798935586e-18
	-1.337867298353881e-14
	1.849329187624731e-05
	2.190040334005956e-03
	5.007156599401343e-04
	3.171013475355094e-01

 100	1.000000000000001e+00
	-2.448139763957064e-15
	-1.544567424935657e-18
	-1.340418611261194e-14
	1.904588923620974e-05
	2.231890062146357e-03
	5.228092182456397e-04
	3.171037464097143e-01

 101	1.010000000000001e+00
	-2.449869263371399e-15
	-1.578515190516119e-18
	-1.342893256831336e-14
	1.960387812370810e-05
	2.272167588892600e-03
	5.453127090912172e-04
	3.171061925825445e-01

 102	1.020000000000001e+00
	-2.451784682953128e-15
	-1.613071276607564e-18
	-1.345292948430870e-14
	2.016703451884435e-05
	2.310859627021729e-03
	5.682103430493461e-04
	3.171086842185450e-01

 103	1.030000000000001e+00
	-2.453879385115984e-15
	-1.648247126756738e-18
	-1.347619378105410e-14
	2.073514132056016e-05
	2.347961514751435e-03
	5.914862428423386e-04
	3.171112194683761e-01

 104	1.040000000000001e+00
	-2.456146909949782e-15
	-1.684054452894267e-18
	-1.349874215753854e-14
	2.130798895609469e-05
	2.383476640391938e-03
	6.151245266169480e-04
	3.171137964791663e-01

 105	1.050000000000001e+00
	-2.458580973494109e-15
	-1.720505241276943e-18
	-1.352059108386247e-14
	2.188537591401309e-05
	2.417415829164274e-03
	6.391093852628722e-04
	3.171164134041456e-01

 106	1.060000000000001e+00
	-2.461175465824169e-15
	-1.757611758610950e-18
	-1.354175679461417e-14
	2.246710920187937e-05
	2.449796704369050e-03
	6.634251534607811e-04
	3.171190684114487e-01

 107	1.070000000000001e+00
	-2.463924448965488e-15
	-1.795386558361798e-18
	-1.356225528300552e-14
	2.305300473035733e-05
	2.480643034199447e-03
	6.880563742626309e-04
	3.171217596921193e-01

 108	1.080000000000001e+00
	-2.466822154653062e-15
	-1.833842487257034e-18
	-1.358210229572942e-14
	2.364288762615408e-05
	2.509984074469914e-03
	7.129878571147687e-04
	3.171244854672788e-01

 109	1.090000000000001e+00
	-2.469862981950080e-15
	-1.872992691988142e-18
	-1.360131332850227e-14
	2.423659247676293e-05
	2.537853916420971e-03
	7.382047293312998e-04
	3.171272439944765e-01

 110	1.100000000000001e+00
	-2.473041494740498e-15
	-1.912850626117325e-18
	-1.361990362225495e-14
	2.483396351041524e-05
	2.564290847601699e-03
	7.636924811107419e-04
	3.171300335732228e-01

 111	1.110000000000001e+00
	-2.476352419109101e-15
	-1.953430057196106e-18
	-1.363788815993733e-14
	2.543485471502025e-05
	2.589336732660923e-03
	7.894370042629320e-04
	3.171328525497381e-01

 112	1.120000000000001e+00
	-2.479790640622035e-15
	-1.994745074101579e-18
	-1.365528166390191e-14
	2.603912990015281e-05
	2.613036419725775e-03
	8.154246248753574e-04
	3.171356993209620e-01

 113	1.130000000000001e+00
	-2.483351201519932e-15
	-2.036810094597176e-18
	-1.367209859383313e-14
	2.664666270635798e-05
	2.635437176938417e-03
	8.416421301992075e-04
	3.171385723378234e-01

 114	1.140000000000001e+00
	-2.487029297835352e-15
	-2.079639873124681e-18
	-1.368835314519029e-14
	2.725733656616705e-05
	2.656588162676384e-03
	8.680767900754692e-04
	3.171414701078571e-01

 115	1.150000000000001e+00
	-2.490820276445323e-15
	-2.123249508834279e-18
	-1.370405924813260e-14
	2.787104462128609e-05
	2.676539932015867e-03
	8.947163732517088e-04
	3.171443911971855e-01

 116	1.160000000000001e+00
	-2.494719632069288e-15
	-2.167654453859636e-18
	-1.371923056689650e-14
	2.848768960041804e-05
	2.695343981119275e-03
	9.215491589611011e-04
	3.171473342319113e-01

 117	1.170000000000001e+00
	-2.498723004222219e-15
	-2.212870521845653e-18
	-1.373388049959590e-14
	2.910718366212494e-05
	2.713052330444555e-03
	9.485639441478606e-04
	3.171502978990059e-01

 118	1.180000000000001e+00
	-2.502826174131771e-15
	-2.258913896736094e-18
	-1.374802217841769e-14
	2.972944820704078e-05
	2.729717146987901e-03
	9.757500467287546e-04
	3.171532809466847e-01

 119	1.190000000000001e+00
	-2.507025061628021e-15
	-2.305801141828881e-18
	-1.376166847018566e-14
	3.035441366360029e-05
	2.745390405180982e-03
	1.003097305279154e-03
	3.171562821843714e-01

 120	1.200000000000001e+00
	-2.511315722013809e-15
	-2.353549209107367e-18
	-1.377483197726687e-14
	3.098201925127991e-05
	2.760123585567935e-03
	1.030596075525818e-03
	3.171593004822761e-01

 121	1.210000000000001e+00
	-2.515694342922834e-15
	-2.402175448855355e-18
	-1.378752503879621e-14
	3.161221272514536e-05
	2.773967409980019e-03
	1.058237224017634e-03
	3.171623347706328e-01

 122	1.220000000000001e+00
	-2.520157241172500e-15
	-2.451697619565169e-18
	-1.379975973219545e-14
	3.224495010528061e-05
	2.786971611601357e-03
	1.086012119330986e-03
	3.171653840386346e-01

 123	1.230000000000001e+00
	-2.524700859617867e-15
	-2.502133898146881e-18
	-1.381154787496418e-14
	3.288019539443693e-05
	2.799184738070318e-03
	1.113912621149003e-03
	3.171684473331380e-01

 124	1.240000000000001e+00
	-2.529321764012477e-15
	-2.553502890447967e-18
	-1.382290102672141e-14
	3.351792028699852e-05
	2.810653985581019e-03
	1.141931067534489e-03
	3.171715237571353e-01

 125	1.250000000000001e+00
	-2.534016639881544e-15
	-2.605823642094183e-18
	-1.383383049147737e-14
	3.415810387211029e-05
	2.821425061828984e-03
	1.170060260695284e-03
	3.171746124680526e-01

 126	1.260000000000001e+00
	-2.538782289412552e-15
	-2.659115649658860e-18
	-1.384434732011585e-14
	3.480073233356127e-05
	2.831542075577418e-03
	1.198293451518810e-03
	3.171777126759214e-01

 127	1.270000000000001e+00
	-2.543615628367686e-15
	-2.713398872173710e-18
	-1.385446231306903e-14
	3.544579864877433e-05
	2.841047450598429e-03
	1.226624323130360e-03
	3.171808236414165e-01

 128	1.280000000000001e+00
	-2.548513683022404e-15
	-2.768693742989736e-18
	-1.386418602316688e-14
	3.609330228900512e-05
	2.849981861758240e-03
	1.255046973707130e-03
	3.171839446738195e-01

 129	1.290000000000001e+00
	-2.553473587133919e-15
	-2.825021181999870e-18
	-1.387352875864473e-14
	3.674324892262181e-05
	2.858384191062115e-03
	1.283555898757983e-03
	3.171870751289211e-01

 130	1.300000000000001e+00
	-2.558492578943071e-15
	-2.882402608234146e-18
	-1.388250058629318e-14
	3.739565012311178e-05
	2.866291501545929e-03
	1.312145973057473e-03
	3.171902144068929e-01

 131	1.310000000000001e+00
	-2.563567998212632e-15
	-2.940859952840203e-18
	-1.389111133473559e-14
	3.805052308324900e-05
	2.873739026992208e-03
	1.340812432402007e-03
	3.171933619501273e-01

 132	1.320000000000001e+00
	-2.568697283304988e-15
	-3.000415672459796e-18
	-1.389937059781889e-14
	3.870789033665311e-05
	2.880760175553559e-03
	1.369550855336256e-03
	3.171965172410914e-01

 133	1.330000000000001e+00
	-2.573877968301573e-15
	-3.061092763015160e-18
	-1.390728773810463e-14
	3.936777948778651e-05
	2.887386545482287e-03
	1.398357144979509e-03
	3.171996798001841e-01

 134	1.340000000000001e+00
	-2.579107680166396e-15
	-3.122914773917132e-18
	-1.391487189044763e-14
	4.003022295125927e-05
	2.893647951286874e-03
	1.427227511064157e-03
	3.172028491836285e-01

 135	1.350000000000001e+00
	-2.584384135955582e-15
	-3.185905822709121e-18
	-1.392213196565052e-14
	4.069525770115164e-05
	2.899572458761673e-03
	1.456158452282371e-03
	3.172060249814069e-01

 136	1.360000000000001e+00
	-2.589705140074615e-15
	-3.250090610161073e-18
	-1.392907665418306e-14
	4.136292503092230e-05
	2.905186427462797e-03
	1.485146739022330e-03
	3.172092068152283e-01

 137	1.370000000000001e+00
	-2.595068581584876e-15
	-3.315494435827135e-18
	-1.393571442995592e-14
	4.203327032432858e-05
	2.910514559327694e-03
	1.514189396561441e-03
	3.172123943365766e-01

 138	1.380000000000001e+00
	-2.600472431560606e-15
	-3.382143214082650e-18
	-1.394205355413907e-14
	4.270634283767685e-05
	2.915579952258663e-03
	1.543283688771968e-03
	3.172155872247917e-01

 139	1.390000000000001e+00
	-2.605914740497498e-15
	-3.450063490655308e-18
	-1.394810207901570e-14
	4.338219549360283e-05
	2.920404157607409e-03
	1.572427102382933e-03
	3.172187851852427e-01

 140	1.400000000000001e+00
	-2.611393635773754e-15
	-3.519282459667676e-18
	-1.395386785186319e-14
	4.406088468649570e-05
	2.925007240610633e-03
	1.601617331832423e-03
	3.172219879475640e-01

 141	1.410000000000001e+00
	-2.616907319164182e-15
	-3.589827981206105e-18
	-1.395935851885310e-14
	4.474247009959247e-05
	2.929407842932471e-03
	1.630852264735370e-03
	3.172251952639518e-01

 142	1.420000000000001e+00
	-2.622454064408179e-15
	-3.661728599434766e-18
	-1.396458152896271e-14
	4.542701453369461e-05
	2.933623246568931e-03
	1.660129967983850e-03
	3.172284069075596e-01

 143	1.430000000000001e+00
	-2.628032214831598e-15
	-3.735013561271612e-18
	-1.396954413789143e-14
	4.611458374740086e-05
	2.937669438462553e-03
	1.689448674490213e-03
	3.172316226709500e-01

 144	1.440000000000001e+00
	-2.633640181023093e-15
	-3.809712835645895e-18
	-1.397425341197529e-14
	4.680524630869201e-05
	2.941561175260643e-03
	1.718806770577068e-03
	3.172348423646358e-01

 145	1.450000000000001e+00
	-2.639276438564776e-15
	-3.885857133354945e-18
	-1.397871623209397e-14
	4.749907345766179e-05
	2.945312047729420e-03
	1.748202784013079e-03
	3.172380658156855e-01

 146	1.460000000000001e+00
	-2.644939525817468e-15
	-3.963477927541154e-18
	-1.398293929756461e-14
	4.819613898014618e-05
	2.948934544407903e-03
	1.777635372688826e-03
	3.172412928664200e-01

 147	1.470000000000001e+00
	-2.650628041760110e-15
	-4.042607474809885e-18
	-1.398692913001736e-14
	4.889651909197929e-05
	2.952440114150798e-03
	1.807103313923420e-03
	3.172445233731650e-01

 148	1.480000000000001e+00
	-2.656340643883383e-15
	-4.123278837009226e-18
	-1.399069207724806e-14
	4.960029233357252e-05
	2.955839227268123e-03
	1.836605494389089e-03
	3.172477572050913e-01

 149	1.490000000000001e+00
	-2.662076046137055e-15
	-4.205525903693317e-18
	-1.399423431704378e-14
	5.030753947450183e-05
	2.959141435022346e-03
	1.866140900638542e-03
	3.172509942431144e-01

 150	1.500000000000001e+00
	-2.667833016930798e-15
	-4.289383415293232e-18
	-1.399756186097721e-14
	5.101834342776963e-05
	2.962355427290683e-03
	1.895708610217614e-03
	3.172542343788728e-01

 151	1.510000000000001e+00
	-2.673610377187865e-15
	-4.374886987018786e-18
	-1.400068055816622e-14
	5.173278917340214e-05
	2.965489088242115e-03
	1.925307783344070e-03
	3.172574775137674e-01

 152	1.520000000000001e+00
	-2.679406998451145e-15
	-4.462073133515852e-18
	-1.400359609899568e-14
	5.245096369103720e-05
	2.968549549915610e-03
	1.954937655132172e-03
	3.172607235580520e-01

 153	1.530000000000001e+00
	-2.685221801041040e-15
	-4.550979294304300e-18
	-1.400631401879813e-14