Title: ** sch_path: /home/andylithia/openmpw/project-yatsuhashi-chip1/xschem/gmid_test/nmos_test.sch
Date: Tue Jul 19 23:15:45  2022
Plotname: DC transfer characteristic
Flags: real
No. Variables: 8
No. Points: 181
Variables:
	0	v(v-sweep)	voltage
	1	@m.xm1.msky130_fd_pr__nfet_01v8[cgb]	capacitance
	2	@m.xm1.msky130_fd_pr__nfet_01v8[cgd]	capacitance
	3	@m.xm1.msky130_fd_pr__nfet_01v8[cgs]	capacitance
	4	@m.xm1.msky130_fd_pr__nfet_01v8[gds]	admittance
	5	@m.xm1.msky130_fd_pr__nfet_01v8[gm]	admittance
	6	i(@m.xm1.msky130_fd_pr__nfet_01v8[id])	current
	7	v(@m.xm1.msky130_fd_pr__nfet_01v8[vth])	voltage
Values:
 0	0.000000000000000e+00
	-1.866193008028105e-14
	-1.720906217495321e-18
	-3.980299881584721e-14
	3.988348615226605e-08
	1.470983280938132e-06
	2.015400630754237e-07
	1.510381138045232e-01

 1	1.000000000000000e-02
	-1.846724209635151e-14
	-1.759060162193274e-18
	-4.027432589061230e-14
	4.274038901706988e-08
	1.581893495852931e-06
	2.167976193638616e-07
	1.510381149217464e-01

 2	2.000000000000000e-02
	-1.827545956463980e-14
	-1.797999558036993e-18
	-4.074415485642399e-14
	4.579024936525625e-08
	1.701312452962889e-06
	2.332062705005737e-07
	1.510381161246016e-01

 3	3.000000000000000e-02
	-1.808661136131834e-14
	-1.837738938453931e-18
	-4.121234590745028e-14
	4.904500063243434e-08
	1.829928261381540e-06
	2.508544961513093e-07
	1.510381174198650e-01

 4	4.000000000000000e-02
	-1.790072502822045e-14
	-1.878293083989094e-18
	-4.167876086944146e-14
	5.251721863284763e-08
	1.968489410763918e-06
	2.698379544392822e-07
	1.510381188148847e-01

 5	5.000000000000000e-02
	-1.771782672795121e-14
	-1.919677027053041e-18
	-4.214326334163347e-14
	5.622014861366763e-08
	2.117810423078347e-06
	2.902601135863114e-07
	1.510381203176359e-01

 6	6.000000000000000e-02
	-1.753794120219828e-14
	-1.961906056800206e-18
	-4.260571883490347e-14
	6.016773292756946e-08
	2.278778025566007e-06
	3.122329426432036e-07
	1.510381219367839e-01

 7	7.000000000000001e-02
	-1.736109173329344e-14
	-2.004995724141048e-18
	-4.306599490589831e-14
	6.437463930569970e-08
	2.452357886076363e-06
	3.358776667253954e-07
	1.510381236817424e-01

 8	8.000000000000000e-02
	-1.718730010906761e-14
	-2.048961846891022e-18
	-4.352396128686742e-14
	6.885628971101336e-08
	2.639601953920949e-06
	3.613255925915015e-07
	1.510381255627547e-01

 9	9.000000000000000e-02
	-1.701658659103116e-14
	-2.093820515061912e-18
	-4.397949001095148e-14
	7.362888974976094e-08
	2.841656451232221e-06
	3.887190108432380e-07
	1.510381275909644e-01

 10	9.999999999999999e-02
	-1.684896988590350e-14
	-2.139588096297445e-18
	-4.443245553268783e-14
	7.870945861666532e-08
	3.059770561505500e-06
	4.182121814835098e-07
	1.510381297785082e-01

 11	1.100000000000000e-01
	-1.668446712050471e-14
	-2.186281241459560e-18
	-4.488273484351495e-14
	8.411585954697918e-08
	3.295305863497390e-06
	4.499724100439460e-07
	1.510381321386046e-01

 12	1.200000000000000e-01
	-1.652309382001434e-14
	-2.233916890367012e-18
	-4.533020758207080e-14
	8.986683074621901e-08
	3.549746559899995e-06
	4.841812219812009e-07
	1.510381346856659e-01

 13	1.300000000000000e-01
	-1.636486388959126e-14
	-2.282512277693074e-18
	-4.577475613910103e-14
	9.598201676585892e-08
	3.824710551152783e-06
	5.210356435405809e-07
	1.510381374354098e-01

 14	1.400000000000000e-01
	-1.620978959934075e-14
	-2.332084939024450e-18
	-4.621626575680833e-14
	1.024820002906416e-07
	4.121961405327190e-06
	5.607495977921634e-07
	1.510381404049898e-01

 15	1.500000000000000e-01
	-1.605788157260484e-14
	-2.382652717087501e-18
	-4.665462462249354e-14
	1.093883343004560e-07
	4.443421275158177e-06
	6.035554250550714e-07
	1.510381436131328e-01

 16	1.600000000000000e-01
	-1.590914877754343e-14
	-2.434233768145187e-18
	-4.708972395635798e-14
	1.167235745668067e-07
	4.791184812922940e-06
	6.497055374346365e-07
	1.510381470802912e-01

 17	1.700000000000000e-01
	-1.576359852196478e-14
	-2.486846568570193e-18
	-4.752145809335447e-14
	1.245113124409145e-07
	5.167534132902805e-06
	6.994742176999017e-07
	1.510381508288154e-01

 18	1.800000000000000e-01
	-1.562123645135604e-14
	-2.540509921597922e-18
	-4.794972455899398e-14
	1.327762078872420e-07
	5.574954869519372e-06
	7.531595732184214e-07
	1.510381548831357e-01

 19	1.900000000000000e-01
	-1.548206655005551e-14
	-2.595242964265417e-18
	-4.837442413903372e-14
	1.415440227128632e-07
	6.016153376820038e-06
	8.110856561347249e-07
	1.510381592699745e-01

 20	2.000000000000000e-01
	-1.534609114550122e-14
	-2.651065174540240e-18
	-4.879546094299258e-14
	1.508416539394439e-07
	6.494075111700245e-06
	8.736047614196695e-07
	1.510381640185524e-01

 21	2.100000000000000e-01
	-1.521331091548322e-14
	-2.707996378644703e-18
	-4.921274246145435e-14
	1.606971672607818e-07
	7.011924238988106e-06
	9.410999148210309e-07
	1.510381691608478e-01

 22	2.200000000000001e-01
	-1.508372489831868e-14
	-2.766056758580343e-18
	-4.962617961714462e-14
	1.711398305247056e-07
	7.573184491174033e-06
	1.013987563101021e-06
	1.510381747318608e-01

 23	2.300000000000001e-01
	-1.495733050586419e-14
	-2.825266859858153e-18
	-5.003568680977866e-14
	1.822001471737940e-07
	8.181641309031673e-06
	1.092720479242255e-06
	1.510381807699019e-01

 24	2.400000000000001e-01
	-1.483412353927201e-14
	-2.885647599440341e-18
	-5.044118195469976e-14
	1.939098895746447e-07
	8.841405281534348e-06
	1.177790895527654e-06
	1.510381873169127e-01

 25	2.500000000000001e-01
	-1.471409820739169e-14
	-2.947220273898098e-18
	-5.084258651534337e-14
	2.063021321604703e-07
	9.556936894210838e-06
	1.269733877538370e-06
	1.510381944188160e-01

 26	2.600000000000001e-01
	-1.459724714771430e-14
	-3.010006567791988e-18
	-5.123982552957869e-14
	2.194112843064608e-07
	1.033307258429367e-05
	1.369130952152168e-06
	1.510382021259032e-01

 27	2.700000000000001e-01
	-1.448356144975003e-14
	-3.074028562280516e-18
	-5.163282762999763e-14
	2.332731228516970e-07
	1.117505208858374e-05
	1.476614002546963e-06
	1.510382104932379e-01

 28	2.800000000000001e-01
	-1.437303068072729e-14
	-3.139308743962222e-18
	-5.202152505823425e-14
	2.479248241753922e-07
	1.208854705578366e-05
	1.592869443003266e-06
	1.510382195811195e-01

 29	2.900000000000001e-01
	-1.426564291349718e-14
	-3.205870013958683e-18
	-5.240585367341439e-14
	2.634049957288863e-07
	1.307969087905100e-05
	1.718642685937951e-06
	1.510382294555705e-01

 30	3.000000000000001e-01
	-1.416138475652373e-14
	-3.273735697243359e-18
	-5.278575295484878e-14
	2.797537069180954e-07
	1.415510968660422e-05
	1.854742913070215e-06
	1.510382401888695e-01

 31	3.100000000000001e-01
	-1.406024138583793e-14
	-3.342929552223089e-18
	-5.316116599909669e-14
	2.970125192240513e-07
	1.532195440831943e-05
	2.002048161900250e-06
	1.510382518601345e-01

 32	3.200000000000001e-01
	-1.396219657883201e-14
	-3.413475780579462e-18
	-5.353203951153826e-14
	3.152245154417904e-07
	1.658793381434145e-05
	2.161510737751644e-06
	1.510382645559542e-01

 33	3.300000000000001e-01
	-1.386723274976714e-14
	-3.485399037376098e-18
	-5.389832379260896e-14
	3.344343279101802e-07
	1.796134839777597e-05
	2.334162960469587e-06
	1.510382783710565e-01

 34	3.400000000000001e-01
	-1.377533098686874e-14
	-3.558724441438833e-18
	-5.425997271885474e-14
	3.546881655971855e-07
	1.945112494754113e-05
	2.521123253457420e-06
	1.510382934090588e-01

 35	3.500000000000001e-01
	-1.368647109088104e-14
	-3.633477586016077e-18
	-5.461694371898244e-14
	3.760338398970374e-07
	2.106685162949206e-05
	2.723602581056070e-06
	1.510383097832556e-01

 36	3.600000000000002e-01
	-1.360063161495304e-14
	-3.709684549726894e-18
	-5.496919774508548e-14
	3.985207889872669e-07
	2.281881336406010e-05
	2.942911238301903e-06
	1.510383276174603e-01

 37	3.700000000000002e-01
	-1.351778990572910e-14
	-3.787371907804364e-18
	-5.531669923923206e-14
	4.222001005850883e-07
	2.471802725701057e-05
	3.180465994821934e-06
	1.510383470469403e-01

 38	3.800000000000002e-01
	-1.343792214551634e-14
	-3.866566743640532e-18
	-5.565941609561436e-14
	4.471245329342136e-07
	2.677627780671122e-05
	3.437797592025630e-06
	1.510383682193913e-01

 39	3.900000000000002e-01
	-1.336100339540376e-14
	-3.947296660643790e-18
	-5.599731961845898e-14
	4.733485338447373e-07
	2.900615157672951e-05
	3.716558589811230e-06
	1.510383912959862e-01

 40	4.000000000000002e-01
	-1.328700763920862e-14
	-4.029589794413809e-18
	-5.633038447590698e-14
	5.009282576004663e-07
	3.142107098697058e-05
	4.018531555712981e-06
	1.510384164525161e-01

 41	4.100000000000002e-01
	-1.321590782812748e-14
	-4.113474825244035e-18
	-5.665858865007577e-14
	5.299215795405356e-07
	3.403532684028479e-05
	4.345637585765264e-06
	1.510384438805691e-01

 42	4.200000000000002e-01
	-1.314767592597271e-14
	-4.198980990960886e-18
	-5.698191338351647e-14
	5.603881081145391e-07
	3.686410916493719e-05
	4.699945142341199e-06
	1.510384737888212e-01

 43	4.300000000000002e-01
	-1.308228295487567e-14
	-4.286138100106722e-18
	-5.730034312228759e-14
	5.923891942042684e-07
	3.992353591709115e-05
	5.083679189844853e-06
	1.510385064043702e-01

 44	4.400000000000002e-01
	-1.301969904134327e-14
	-4.374976545478119e-18
	-5.761386545586162e-14
	6.259879374992974e-07
	4.323067905204751e-05
	5.499230604393812e-06
	1.510385419741796e-01

 45	4.500000000000002e-01
	-1.295989346255551e-14
	-4.465527318026371e-18
	-5.792247105408772e-14
	6.612491897095994e-07
	4.680358743912769e-05
	5.949165828544638e-06
	1.510385807665701e-01

 46	4.600000000000002e-01
	-1.290283469279664e-14
	-4.557822021132237e-18
	-5.822615360143014e-14
	6.982395543953404e-07
	5.066130606346554e-05
	6.436236736696422e-06
	1.510386230727988e-01

 47	4.700000000000003e-01
	-1.284849044991514e-14
	-4.651892885264074e-18
	-5.852490972870287e-14
	7.370273831931166e-07
	5.482389092944459e-05
	6.963390671092169e-06
	1.510386692087112e-01

 48	4.800000000000003e-01
	-1.279682774171264e-14
	-4.747772783028468e-18
	-5.881873894251933e-14
	7.776827682189863e-07
	5.931241905593166e-05
	7.533780602354662e-06
	1.510387195164645e-01

 49	4.900000000000003e-01
	-1.274781291216465e-14
	-4.845495244626420e-18
	-5.910764355267453e-14
	8.202775304321938e-07
	6.414899293376213e-05
	8.150775362288329e-06
	1.510387743663011e-01

 50	5.000000000000002e-01
	-1.270141168738168e-14
	-4.945094473724038e-18
	-5.939162859767308e-14
	8.648852037499911e-07
	6.935673880209863e-05
	8.817969890304050e-06
	1.510388341584029e-01

 51	5.100000000000002e-01
	-1.265758922122225e-14
	-5.046605363750921e-18
	-5.967070176861458e-14
	9.115810147137455e-07
	7.495979809336501e-05
	9.539195428348168e-06
	1.510388993247679e-01

 52	5.200000000000002e-01
	-1.261631014047491e-14
	-5.150063514635492e-18
	-5.994487333164317e-14
	9.604418575197482e-07
	8.098331139742383e-05
	1.031852959270521e-05
	1.510389703311574e-01

 53	5.300000000000002e-01
	-1.257753858952982e-14
	-5.255505249992017e-18
	-6.021415604916416e-14
	1.011546264245908e-06
	8.745339430564058e-05
	1.116030624459400e-05
	1.510390476790356e-01

 54	5.400000000000003e-01
	-1.254123827446597e-14
	-5.362967634769940e-18
	-6.047856510002557e-14
	1.064974370127132e-06
	9.439710451535547e-05
	1.206912507516708e-05
	1.510391319075579e-01

 55	5.500000000000003e-01
	-1.250737250648461e-14
	-5.472488493379427e-18
	-6.073811799885595e-14
	1.120807873759488e-06
	1.018423996061325e-04
	1.304986081447596e-05
	1.510392235955396e-01

 56	5.600000000000003e-01
	-1.247590424462271e-14
	-5.584106428306021e-18
	-6.099283451474799e-14
	1.179129992145157e-06
	1.098180849417432e-04
	1.410767196827829e-05
	1.510393233634035e-01

 57	5.700000000000003e-01
	-1.244679613768753e-14
	-5.697860839228145e-18
	-6.124273658946500e-14
	1.240025410528195e-06
	1.183537512069815e-04
	1.524800898136802e-05
	1.510394318750945e-01

 58	5.800000000000003e-01
	-1.242001056535497e-14
	-5.813791942652230e-18
	-6.148784825534815e-14
	1.303580227014907e-06
	1.274797011566859e-04
	1.647662172153308e-05
	1.510395498399349e-01

 59	5.900000000000003e-01
	-1.239550967838180e-14
	-5.931940792079453e-18
	-6.172819555308899e-14
	1.369881892022938e-06
	1.372268652361737e-04
	1.779956617442007e-05
	1.510396780143747e-01

 60	6.000000000000003e-01
	-1.237325543788356e-14
	-6.052349298719411e-18
	-6.196380644953147e-14
	1.439019142659361e-06
	1.476267058278657e-04
	1.922321023664547e-05
	1.510398172036523e-01

 61	6.100000000000003e-01
	-1.235320965363719e-14
	-6.175060252768511e-18
	-6.219471075565320e-14
	1.511081932191696e-06
	1.587111099881749e-04
	2.075423849258619e-05
	1.510399682632889e-01

 62	6.200000000000003e-01
	-1.233533402136915e-14
	-6.300117345265223e-18
	-6.242094004487661e-14
	1.586161354845075e-06
	1.705122706613503e-04
	2.239965585952916e-05
	1.510401321004258e-01

 63	6.300000000000003e-01
	-1.231959015899622e-14
	-6.427565190544138e-18
	-6.264252757184538e-14
	1.664349566235315e-06
	1.830625564922836e-04
	2.416678998640476e-05
	1.510403096749474e-01

 64	6.400000000000003e-01
	-1.230593964178845e-14
	-6.557449349301875e-18
	-6.285950819180118e-14
	1.745739699830174e-06
	1.963943705073006e-04
	2.606329229328769e-05
	1.510405020003614e-01

 65	6.500000000000004e-01
	-1.229434403642940e-14
	-6.689816352297310e-18
	-6.307191828068256e-14
	1.830425779919542e-06
	2.105399980892491e-04
	2.809713754232829e-05
	1.510407101444120e-01

 66	6.600000000000004e-01
	-1.228476493395153e-14
	-6.824713724699388e-18
	-6.327979565606381e-14
	1.918502631669518e-06
	2.255314448391021e-04
	3.027662183588323e-05
	1.510409352293881e-01

 67	6.700000000000004e-01
	-1.227716398152868e-14
	-6.962190011107877e-18
	-6.348317949904339e-14
	2.010065788934304e-06
	2.414002650886370e-04
	3.261035894441021e-05
	1.510411784320835e-01

 68	6.800000000000004e-01
	-1.227150291311143e-14
	-7.102294801264892e-18
	-6.368211027718295e-14
	2.105211400602963e-06
	2.581773820050891e-04
	3.510727487523697e-05
	1.510414409833816e-01

 69	6.900000000000004e-01
	-1.226774357889418e-14
	-7.245078756474603e-18
	-6.387662966859261e-14
	2.204036136364521e-06
	2.758929004061853e-04
	3.777660060363474e-05
	1.510417241674395e-01

 70	7.000000000000004e-01
	-1.226584797360690e-14
	-7.390593636758619e-18
	-6.406678048724854e-14
	2.306637092883439e-06
	2.945759135794665e-04
	4.062786289970970e-05
	1.510420293204402e-01

 71	7.100000000000004e-01
	-1.226577826362644e-14
	-7.538892328765190e-18
	-6.425260660962396e-14
	2.413111701487485e-06
	3.142543055700373e-04
	4.367087319845600e-05
	1.510423578288870e-01

 72	7.200000000000004e-01
	-1.226749681290629e-14
	-7.690028874456113e-18
	-6.443415290270703e-14
	2.523557638579062e-06
	3.349545505620240e-04
	4.691571447578560e-05
	1.510427111274146e-01

 73	7.300000000000004e-01
	-1.227096620772617e-14
	-7.844058500597264e-18
	-6.461146515347080e-14
	2.638072740089448e-06
	3.567015111275955e-04
	5.037272611039297e-05
	1.510430906960967e-01

 74	7.400000000000004e-01
	-1.227614928026620e-14
	-8.001037649072779e-18
	-6.478458999985596e-14
	2.756754921400000e-06
	3.795182372493995e-04
	5.405248672974414e-05
	1.510434980572754e-01

 75	7.500000000000004e-01
	-1.228300913101129e-14
	-8.161024008052563e-18
	-6.495357486331972e-14
	2.879702104255284e-06
	4.034257681341512e-04
	5.796579505815190e-05
	1.510439347718505e-01

 76	7.600000000000005e-01
	-1.229150914999606e-14
	-8.324076544037467e-18
	-6.511846788299752e-14
	3.007012152287524e-06
	4.284429389231200e-04
	6.212364880555299e-05
	1.510444024350854e-01

 77	7.700000000000005e-01
	-1.230161303690125e-14
	-8.490255534807439e-18
	-6.527931785151841e-14
	3.138782816859464e-06
	4.545861944662021e-04
	6.653722165701847e-05
	1.510449026719082e-01

 78	7.800000000000005e-01
	-1.231328482001475e-14
	-8.659622603303294e-18
	-6.543617415251086e-14
	3.275111695011658e-06
	4.818694123570911e-04
	7.121783844489502e-05
	1.510454371317325e-01

 79	7.900000000000005e-01
	-1.232648887407428e-14
	-8.832240752467897e-18
	-6.558908669982652e-14
	3.416096201369403e-06
	5.103037374252537e-04
	7.617694860748264e-05
	1.510460074828464e-01

 80	8.000000000000005e-01
	-1.234118993700745e-14
	-9.008174401076914e-18
	-6.573810587850817e-14
	3.561833555923485e-06
	5.398974298441737e-04
	8.142609805998377e-05
	1.510466154063700e-01

 81	8.100000000000005e-01
	-1.235735312559023e-14
	-9.187489420588917e-18
	-6.588328248752043e-14
	3.712420789645756e-06
	5.706557289431446e-04
	8.697689962471914e-05
	1.510472625898820e-01

 82	8.200000000000005e-01
	-1.237494395004227e-14
	-9.370253173045600e-18
	-6.602466768425836e-14
	3.867954769936545e-06
	6.025807347015372e-04
	9.284100218799008e-05
	1.510479507206804e-01

 83	8.300000000000005e-01
	-1.239392832758416e-14
	-9.556534550054564e-18
	-6.616231293084301e-14
	4.028532247923729e-06
	6.356713087598740e-04
	9.903005877004572e-05
	1.510486814788434e-01

 84	8.400000000000005e-01
	-1.241427259497760e-14
	-9.746404012884242e-18
	-6.629626994221058e-14
	4.194249929645241e-06
	6.699229966026062e-04
	1.055556937120959e-04
	1.510494565300760e-01

 85	8.500000000000005e-01
	-1.243594352007473e-14
	-9.939933633708597e-18
	-6.642659063599626e-14
	4.365204573146978e-06
	7.053279723549714e-04
	1.124294691998086e-04
	1.510502775184558e-01

 86	8.600000000000005e-01
	-1.245890831240215e-14
	-1.013719713803206e-17
	-6.655332708421052e-14
	4.541493113518009e-06
	7.418750073935216e-04
	1.196628513559460e-04
	1.510511460591605e-01

 87	8.700000000000006e-01
	-1.248313463280579e-14
	-1.033826994833129e-17
	-6.667653146670225e-14
	4.723212817866156e-06
	7.795494637005515e-04
	1.272671761454466e-04
	1.510520637312301e-01

 88	8.800000000000006e-01
	-1.250859060218509e-14
	-1.054322922894968e-17
	-6.679625602639965e-14
	4.910461472210768e-06
	8.183333126008566e-04
	1.352536153440803e-04
	1.510530320704982e-01

 89	8.900000000000006e-01
	-1.253524480934348e-14
	-1.075215393228458e-17
	-6.691255302631566e-14
	5.103337602238943e-06
	8.582051792102144e-04
	1.436331428266420e-04
	1.510540525627151e-01

 90	9.000000000000006e-01
	-1.256306631798531e-14
	-1.096512484629942e-17
	-6.702547470830399e-14
	5.301940729837495e-06
	8.991404126038877e-04
	1.524165014322782e-04
	1.510551266370231e-01

 91	9.100000000000006e-01
	-1.259202467288723e-14
	-1.118222464340727e-17
	-6.713507325354686e-14
	5.506371667281129e-06
	9.411111813865940e-04
	1.616141706629694e-04
	1.510562556598032e-01

 92	9.200000000000006e-01
	-1.262208990527424e-14
	-1.140353793076293e-17
	-6.724140074475387e-14
	5.716732850928590e-06
	9.840865940185549e-04
	1.712363354663181e-04
	1.510574409290175e-01

 93	9.300000000000006e-01
	-1.265323253742920e-14
	-1.162915130200657e-17
	-6.734450913005063e-14
	5.933128716257722e-06
	1.028032842931795e-03
	1.812928563456609e-04
	1.510586836690864e-01

 94	9.400000000000006e-01
	-1.268542358656702e-14
	-1.185915339050467e-17
	-6.744445018852999e-14
	6.155666116062031e-06
	1.072913371163082e-03
	1.917932410292764e-04
	1.510599850263991e-01

 95	9.500000000000006e-01
	-1.271863456800170e-14
	-1.209363492413138e-17
	-6.754127549744103e-14
	6.384454783638350e-06
	1.118689059940447e-03
	2.027466179161900e-04
	1.510613460655007e-01

 96	9.600000000000006e-01
	-1.275283749763611e-14
	-1.233268878164045e-17
	-6.763503640098722e-14
	6.619607842823613e-06
	1.165318435394893e-03
	2.141617114990567e-04
	1.510627677659796e-01

 97	9.700000000000006e-01
	-1.278800489380514e-14
	-1.257641005067607e-17
	-6.772578398070153e-14
	6.861242366791267e-06
	1.212757892332221e-03
	2.260468199450214e-04
	1.510642510201455e-01

 98	9.800000000000006e-01
	-1.282410977849878e-14
	-1.282489608747431e-17
	-6.781356902736990e-14
	7.109479987602397e-06
	1.260961932796841e-03
	2.384097949937517e-04
	1.510657966314599e-01

 99	9.900000000000007e-01
	-1.286112567799604e-14
	-1.307824657830868e-17
	-6.789844201446897e-14
	7.364447558624060e-06
	1.309883416992603e-03
	2.512580243081873e-04
	1.510674053137829e-01

 100	1.000000000000001e+00
	-1.289902662293651e-14
	-1.333656360273757e-17
	-6.798045307308246e-14
	7.626277872087224e-06
	1.359473823998599e-03
	2.645984163885258e-04
	1.510690776913980e-01

 101	1.010000000000001e+00
	-1.293778714785693e-14
	-1.359995169871045e-17
	-6.805965196826578e-14
	7.895110434260291e-06
	1.409683519631487e-03
	2.784373881337973e-04
	1.510708142998232e-01

 102	1.020000000000001e+00
	-1.297738229022045e-14
	-1.386851792959634e-17
	-6.813608807681847e-14
	8.171092300970652e-06
	1.460462028761655e-03
	2.927808551086464e-04
	1.510726155873599e-01

 103	1.030000000000001e+00
	-1.301778758896424e-14
	-1.414237195319677e-17
	-6.820981036643125e-14
	8.454378976516853e-06
	1.511758309387362e-03
	3.076342245458614e-04
	1.510744819173674e-01

 104	1.040000000000001e+00
	-1.305897908259095e-14
	-1.442162609281145e-17
	-6.828086737617026e-14
	8.745135379390134e-06
	1.563521025809041e-03
	3.230023910884472e-04
	1.510764135711926e-01

 105	1.050000000000001e+00
	-1.310093330682907e-14
	-1.470639541042703e-17
	-6.834930719825956e-14
	9.043536878664956e-06
	1.615698818321875e-03
	3.388897352487259e-04
	1.510784107517002e-01

 106	1.060000000000001e+00
	-1.314362729188583e-14
	-1.499679778210170e-17
	-6.841517746112716e-14
	9.349770405436533e-06
	1.668240566956979e-03
	3.553001245366922e-04
	1.510804735873365e-01

 107	1.070000000000001e+00
	-1.318703855931654e-14
	-1.529295397562223e-17
	-6.847852531367321e-14
	9.664035644282103e-06
	1.721095646945914e-03
	3.722369171858409e-04
	1.510826021366543e-01

 108	1.080000000000001e+00
	-1.323114511853172e-14
	-1.559498773051323e-17
	-6.853939741072575e-14
	9.986546310411323e-06
	1.774214173756326e-03
	3.897029683822743e-04
	1.510847963932180e-01

 109	1.090000000000001e+00
	-1.327592546296515e-14
	-1.590302584048198e-17
	-6.859783989964321e-14
	1.031753151895812e-05
	1.827547235743613e-03
	4.077006388823903e-04
	1.510870562907998e-01

 110	1.100000000000001e+00
	-1.332135856592256e-14
	-1.621719823838578e-17
	-6.865389840802701e-14
	1.065723725375955e-05
	1.881047112680022e-03
	4.262318058859671e-04
	1.510893817087796e-01

 111	1.110000000000001e+00
	-1.336742387613188e-14
	-1.653763808381149e-17
	-6.870761803250660e-14
	1.100592794397916e-05
	1.934667478653716e-03
	4.452978760152651e-04
	1.510917724776809e-01

 112	1.120000000000001e+00
	-1.341410131301468e-14
	-1.686448185336168e-17
	-6.875904332855749e-14
	1.136388815807448e-05
	1.988363588071302e-03
	4.648998002369474e-04
	1.510942283847392e-01

 113	1.130000000000001e+00
	-1.346137126169670e-14
	-1.719786943374229e-17
	-6.880821830131734e-14
	1.173142442589388e-05
	2.042092443742996e-03
	4.850380905522163e-04
	1.510967491794251e-01

 114	1.140000000000001e+00
	-1.350921456777694e-14
	-1.753794421775894e-17
	-6.885518639736035e-14
	1.210886720113424e-05
	2.095812946275656e-03
	5.057128382716416e-04
	1.510993345788549e-01

 115	1.150000000000001e+00
	-1.355761253187151e-14
	-1.788485320332057e-17
	-6.889999049739533e-14
	1.249657297801582e-05
	2.149486024241024e-03
	5.269237336846943e-04
	1.511019842730089e-01

 116	1.160000000000001e+00
	-1.360654690395057e-14
	-1.823874709555957e-17
	-6.894267290984953e-14
	1.289492657785614e-05
	2.203074744820486e-03
	5.486700869298924e-04
	1.511046979297062e-01

 117	1.170000000000001e+00
	-1.365599987748330e-14
	-1.859978041218989e-17
	-6.898327536530312e-14
	1.330434362327544e-05
	2.256544404850310e-03
	5.709508498696868e-04
	1.511074751992691e-01

 118	1.180000000000001e+00
	-1.370595408340769e-14
	-1.896811159220362e-17
	-6.902183901173924e-14
	1.372527322007255e-05
	2.309862602399204e-03
	5.937646387745650e-04
	1.511103157188353e-01

 119	1.190000000000001e+00
	-1.375639258394047e-14
	-1.934390310804256e-17
	-6.905840441057353e-14
	1.415820086940378e-05
	2.362999289200867e-03
	6.171097576231656e-04
	1.511132191163005e-01

 120	1.200000000000001e+00
	-1.380729886624059e-14
	-1.972732158136048e-17
	-6.909301153343048e-14
	1.460365163582217e-05
	2.415926804436246e-03
	6.409842218294414e-04
	1.511161850138020e-01

 121	1.210000000000001e+00
	-1.385865683594316e-14
	-2.011853790250502e-17
	-6.912569975963198e-14
	1.506219360002927e-05
	2.468619890510370e-03
	6.653857822135361e-04
	1.511192130308356e-01

 122	1.220000000000001e+00
	-1.391045081057475e-14
	-2.051772735385746e-17
	-6.915650787436560e-14
	1.553444162892168e-05
	2.521055691599168e-03
	6.903119490404073e-04
	1.511223027868767e-01

 123	1.230000000000001e+00
	-1.396266551286601e-14
	-2.092506973716133e-17
	-6.918547406749929e-14
	1.602106149972681e-05
	2.573213735847389e-03
	7.157600159583436e-04
	1.511254539035914e-01

 124	1.240000000000001e+00
	-1.401528606397294e-14
	-2.134074950498841e-17
	-6.921263593301321e-14
	1.652277441980624e-05
	2.625075902184101e-03
	7.417270836790265e-04
	1.511286660066184e-01

 125	1.250000000000001e+00
	-1.406829797662023e-14
	-2.176495589648055e-17
	-6.923803046901464e-14
	1.704036198913178e-05
	2.676626372784245e-03
	7.682100832506676e-04
	1.511319387269262e-01

 126	1.260000000000001e+00
	-1.412168714817869e-14
	-2.219788307752855e-17
	-6.926169407830858e-14
	1.757467165861472e-05
	2.727851572245110e-03
	7.952057987863186e-04
	1.511352717018025e-01

 127	1.270000000000001e+00
	-1.417543985368817e-14
	-2.263973028553519e-17
	-6.928366256949330e-14
	1.812662274450915e-05
	2.778740094566705e-03
	8.227108895203280e-04
	1.511386645754712e-01

 128	1.280000000000001e+00
	-1.422954273883759e-14
	-2.309070197893337e-17
	-6.930397115855227e-14
	1.869721306714201e-05
	2.829282619024402e-03
	8.507219110767358e-04
	1.511421169993940e-01

 129	1.290000000000001e+00
	-1.428398281291368e-14
	-2.355100799161514e-17
	-6.932265447091436e-14
	1.928752629141157e-05
	2.879471816003316e-03
	8.792353358442270e-04
	1.511456286323081e-01

 130	1.300000000000001e+00
	-1.433874744172670e-14
	-2.402086369245720e-17
	-6.933974654395681e-14
	1.989874005702338e-05
	2.929302243828110e-03
	9.082475723629069e-04
	1.511491991399848e-01

 131	1.310000000000001e+00
	-1.439382434052607e-14
	-2.450049015011259e-17
	-6.935528082992200e-14
	2.053213499850139e-05
	2.978770237567986e-03
	9.377549836379926e-04
	1.511528281948350e-01

 132	1.320000000000001e+00
	-1.444920156691310e-14
	-2.499011430325537e-17
	-6.936929019922527e-14
	2.118910476889451e-05
	3.027873790730389e-03
	9.677539043052353e-04
	1.511565154753352e-01

 133	1.330000000000001e+00
	-1.450486751376099e-14
	-2.548996913647512e-17
	-6.938180694412706e-14
	2.187116719706144e-05
	3.076612430674484e-03
	9.982406565814254e-04
	1.511602606653479e-01

 134	1.340000000000001e+00
	-1.456081090215047e-14
	-2.600029386201160e-17
	-6.939286278274689e-14
	2.257997672682385e-05
	3.124987088481631e-03
	1.029211564941243e-03
	1.511640634533761e-01

 135	1.350000000000001e+00
	-1.461702077432915e-14
	-2.652133410754669e-17
	-6.940248886339556e-14
	2.331733830751711e-05
	3.172999963913815e-03
	1.060662969468546e-03
	1.511679235317841e-01

 136	1.360000000000001e+00
	-1.467348648670205e-14
	-2.705334211025377e-17
	-6.941071576920327e-14
	2.408522293001405e-05
	3.220654385973418e-03
	1.092591237835873e-03
	1.511718405960158e-01

 137	1.370000000000001e+00
	-1.473019770285988e-14
	-2.759657691733931e-17
	-6.941757352302349e-14
	2.488578503070188e-05
	3.267954669449500e-03
	1.124992775870477e-03
	1.511758143438376e-01

 138	1.380000000000001e+00
	-1.478714438665269e-14
	-2.815130459329848e-17
	-6.942309159259046e-14
	2.572138201879239e-05
	3.314905967696094e-03
	1.157864036668298e-03
	1.511798444746440e-01

 139	1.390000000000001e+00
	-1.484431679531353e-14
	-2.871779843413001e-17
	-6.942729889591195e-14
	2.659459622050643e-05
	3.361514121738057e-03
	1.191201528219037e-03
	1.511839306888220e-01

 140	1.400000000000001e+00
	-1.490170547263785e-14
	-2.929633918875341e-17
	-6.943022380687872e-14
	2.750825957796756e-05
	3.407785505637753e-03
	1.225001819505696e-03
	1.511880726871939e-01

 141	1.410000000000001e+00
	-1.495930124222327e-14
	-2.988721528789447e-17
	-6.943189416107182e-14
	2.846548149209989e-05
	3.453726867880921e-03
	1.259261545040365e-03
	1.511922701705289e-01

 142	1.420000000000001e+00
	-1.501709520077460e-14
	-3.049072308070118e-17
	-6.943233726175166e-14
	2.946968025864960e-05
	3.499345168350322e-03
	1.293977407794651e-03
	1.511965228391551e-01

 143	1.430000000000001e+00
	-1.507507871147585e-14
	-3.110716707937656e-17
	-6.943157988601271e-14
	3.052461861605208e-05
	3.544647410251376e-03
	1.329146180478188e-03
	1.512008303925966e-01

 144	1.440000000000001e+00
	-1.513324339743448e-14
	-3.173686021211604e-17
	-6.942964829108723e-14
	3.163444400482328e-05
	3.589640466127643e-03
	1.364764705110750e-03
	1.512051925292781e-01

 145	1.450000000000001e+00
	-1.519158113519850e-14
	-3.238012408465065e-17
	-6.942656822078620e-14
	3.280373423238300e-05
	3.634330896858568e-03
	1.400829890824148e-03
	1.512096089462399e-01

 146	1.460000000000001e+00
	-1.525008404834875e-14
	-3.303728925072286e-17
	-6.942236491206158e-14
	3.403754934681818e-05
	3.678724762258865e-03
	1.437338709817662e-03
	1.512140793388168e-01

 147	1.470000000000001e+00
	-1.530874450116885e-14
	-3.370869549180335e-17
	-6.941706310167723e-14
	3.534149065049147e-05
	3.722827421594756e-03
	1.474288191375272e-03
	1.512186034002930e-01

 148	1.480000000000001e+00
	-1.536755509239157e-14
	-3.439469210641413e-17
	-6.941068703297841e-14
	3.672176793237022e-05
	3.766643321995374e-03
	1.511675413835108e-03
	1.512231808214227e-01

 149	1.490000000000001e+00
	-1.542650864902417e-14
	-3.509563820938678e-17
	-6.940326046274631e-14
	3.818527616942778e-05
	3.810175772355475e-03
	1.549497494379043e-03
	1.512278112898229e-01

 150	1.500000000000001e+00
	-1.548559822025074e-14
	-3.581190304144619e-17
	-6.939480666812876e-14
	3.973968314579566e-05
	3.853426699899230e-03
	1.587751576484747e-03
	1.512324944891496e-01

 151	1.510000000000001e+00
	-1.554481707141320e-14
	-3.654386628948815e-17
	-6.938534845363612e-14
	4.139352966686588e-05
	3.896396386091317e-03
	1.626434814851759e-03
	1.512372300980397e-01

 152	1.520000000000001e+00
	-1.560415867806816e-14
	-3.729191841794428e-17
	-6.937490815819421e-14
	4.315634430770427e-05
	3.939083178039209e-03
	1.665544357577837e-03
	1.512420177887168e-01

 153	1.530000000000001e+00
	-1.566361672011959e-14
	-3.805646101166218e-17
	-6.936350766224544e-14