Title: ** sch_path: /home/andylithia/openmpw/project-yatsuhashi-chip1/xschem/gmid_test/nmos_test.sch
Date: Tue Jul 19 23:15:45  2022
Plotname: DC transfer characteristic
Flags: real
No. Variables: 8
No. Points: 181
Variables:
	0	v(v-sweep)	voltage
	1	@m.xm1.msky130_fd_pr__nfet_01v8[cgb]	capacitance
	2	@m.xm1.msky130_fd_pr__nfet_01v8[cgd]	capacitance
	3	@m.xm1.msky130_fd_pr__nfet_01v8[cgs]	capacitance
	4	@m.xm1.msky130_fd_pr__nfet_01v8[gds]	admittance
	5	@m.xm1.msky130_fd_pr__nfet_01v8[gm]	admittance
	6	i(@m.xm1.msky130_fd_pr__nfet_01v8[id])	current
	7	v(@m.xm1.msky130_fd_pr__nfet_01v8[vth])	voltage
Values:
 0	0.000000000000000e+00
	-2.596238224850585e-15
	-1.735459949414970e-21
	-2.063148890867827e-15
	5.090643636539031e-09
	2.710816427051067e-07
	2.322412797587367e-08
	3.833768650616776e-01

 1	1.000000000000000e-02
	-2.568720668603376e-15
	-2.568328157287285e-21
	-2.121538963727216e-15
	5.717073294503799e-09
	3.041389797255567e-07
	2.609711854394737e-08
	3.833768653100655e-01

 2	2.000000000000000e-02
	-2.541216291036693e-15
	-3.459666345439513e-21
	-2.180770668563022e-15
	6.418972522838998e-09
	3.411456084261000e-07
	2.932006591339874e-08
	3.833768655887265e-01

 3	3.000000000000000e-02
	-2.513735940614840e-15
	-4.411673116462287e-21
	-2.240816329218554e-15
	7.205134736709387e-09
	3.825614368207121e-07
	3.293472130655212e-08
	3.833768659012796e-01

 4	4.000000000000000e-02
	-2.486290909815803e-15
	-5.426556754591027e-21
	-2.301646494828523e-15
	8.085323655650233e-09
	4.288985613687027e-07
	3.698769134039247e-08
	3.833768662517643e-01

 5	5.000000000000000e-02
	-2.458892903161287e-15
	-6.506531623447753e-21
	-2.363229984273603e-15
	9.070370719300344e-09
	4.807271319169419e-07
	4.153098869529404e-08
	3.833768666446872e-01

 6	6.000000000000000e-02
	-2.431554003202557e-15
	-7.653814531989805e-21
	-2.425533938297596e-15
	1.017228060106766e-08
	5.386819057565010e-07
	4.662264480673991e-08
	3.833768670850827e-01

 7	7.000000000000001e-02
	-2.404286634597837e-15
	-8.870621089639067e-21
	-2.488523879178027e-15
	1.140434520148004e-08
	6.034695834285933e-07
	5.232739192302498e-08
	3.833768675785640e-01

 8	8.000000000000000e-02
	-2.377103526433881e-15
	-1.015916207205431e-20
	-2.552163777786469e-15
	1.278126646715256e-08
	6.758770334892617e-07
	5.871742286931193e-08
	3.833768681313982e-01

 9	9.000000000000000e-02
	-2.350017672960105e-15
	-1.152163981950156e-20
	-2.616416127820811e-15
	1.431928833293970e-08
	7.567805303174743e-07
	6.587323801285587e-08
	3.833768687505765e-01

 10	9.999999999999999e-02
	-2.323042292918536e-15
	-1.296024468990109e-20
	-2.681242026937506e-15
	1.603633802223927e-08
	8.471561484711789e-07
	7.388459025989320e-08
	3.833768694438988e-01

 11	1.100000000000000e-01
	-2.296190787666163e-15
	-1.447715158868120e-20
	-2.746601264459296e-15
	1.795217686187706e-08
	9.480914792820370e-07
	8.285154045826301e-08
	3.833768702200649e-01

 12	1.200000000000000e-01
	-2.269476698298226e-15
	-1.607451659737121e-20
	-2.812452415282660e-15
	2.008856067179613e-08
	1.060798860504985e-06
	9.288563735979538e-08
	3.833768710887791e-01

 13	1.300000000000000e-01
	-2.242913661991336e-15
	-1.775447372249608e-20
	-2.878752939560446e-15
	2.246940967426950e-08
	1.186630338001523e-06
	1.041112383428839e-07
	3.833768720608706e-01

 14	1.400000000000000e-01
	-2.216515367793657e-15
	-1.951913178573465e-20
	-2.945459287689341e-15
	2.512098773100083e-08
	1.327094609618519e-06
	1.166669894388332e-07
	3.833768731484225e-01

 15	1.500000000000000e-01
	-2.190295512096069e-15
	-2.137057147556004e-20
	-3.012527010088971e-15
	2.807209055792539e-08
	1.483876235449999e-06
	1.307074858749618e-07
	3.833768743649245e-01

 16	1.600000000000000e-01
	-2.164267754022756e-15
	-2.331084257957511e-20
	-3.079910871221001e-15
	3.135424238570656e-08
	1.658857435145963e-06
	1.464051373698137e-07
	3.833768757254298e-01

 17	1.700000000000000e-01
	-2.138445670982093e-15
	-2.534196141561544e-20
	-3.147564967261925e-15
	3.500190032810144e-08
	1.854142831185515e-06
	1.639522658124344e-07
	3.833768772467516e-01

 18	1.800000000000000e-01
	-2.112842714619088e-15
	-2.746590847843110e-20
	-3.215442846814128e-15
	3.905266549030760e-08
	2.072087536037073e-06
	1.835634667416447e-07
	3.833768789476760e-01

 19	1.900000000000000e-01
	-2.087472167408723e-15
	-2.968462631720757e-20
	-3.283497634015251e-15
	4.354749959539359e-08
	2.315329019425975e-06
	2.054782702130729e-07
	3.833768808492004e-01

 20	2.000000000000000e-01
	-2.062347100125588e-15
	-3.200001765762829e-20
	-3.351682153387125e-15
	4.853094562991357e-08
	2.586823227543068e-06
	2.299641411848740e-07
	3.833768829748012e-01

 21	2.100000000000000e-01
	-2.037480330419075e-15
	-3.441394378040683e-20
	-3.419949055752256e-15
	5.405135071160494e-08
	2.889885456381464e-06
	2.573198644284506e-07
	3.833768853507483e-01

 22	2.200000000000001e-01
	-2.012884382715184e-15
	-3.692822316638980e-20
	-3.488250944539077e-15
	6.016108906528586e-08
	3.228236503228571e-06
	2.878793641098256e-07
	3.833768880064503e-01

 23	2.300000000000001e-01
	-1.988571449655827e-15
	-3.954463041643947e-20
	-3.556540501795595e-15
	6.691678266130412e-08
	3.606054629670988e-06
	3.220160134858869e-07
	3.833768909748534e-01

 24	2.400000000000001e-01
	-1.964553355274488e-15
	-4.226489545224572e-20
	-3.624770613236231e-15
	7.437951672887303e-08
	4.028033861523070e-06
	3.601474954695983e-07
	3.833768942928817e-01

 25	2.500000000000001e-01
	-1.940841520093434e-15
	-4.509070300222104e-20
	-3.692894491657085e-15
	8.261504701004811e-08
	4.499449120310985e-06
	4.027412799389462e-07
	3.833768980019532e-01

 26	2.600000000000001e-01
	-1.917446928312152e-15
	-4.802369237464776e-20
	-3.760865798072049e-15
	9.169399527607182e-08
	5.026228621065156e-06
	4.503207883375814e-07
	3.833769021485441e-01

 27	2.700000000000001e-01
	-1.894380097240311e-15
	-5.106545751809943e-20
	-3.828638759943699e-15
	1.016920292941754e-07
	5.615033875298271e-06
	5.034723200145604e-07
	3.833769067848435e-01

 28	2.800000000000001e-01
	-1.871651049110376e-15
	-5.421754736722898e-20
	-3.896168285911169e-15
	1.126900231191690e-07
	6.273347498893799e-06
	5.628528174814520e-07
	3.833769119694767e-01

 29	2.900000000000001e-01
	-1.849269285386414e-15
	-5.748146647004781e-20
	-3.963410076449010e-15
	1.247741933002158e-07
	7.009568834787177e-06
	6.291985488560464e-07
	3.833769177683286e-01

 30	3.000000000000001e-01
	-1.827243763665937e-15
	-6.085867589092950e-20
	-4.030320729928499e-15
	1.380362063504143e-07
	7.833117152701947e-06
	7.033347846712565e-07
	3.833769242554611e-01

 31	3.100000000000001e-01
	-1.805582877251580e-15
	-6.435059438174743e-20
	-4.096857843593676e-15
	1.525732526368627e-07
	8.754541876536680e-06
	7.861865423445295e-07
	3.833769315141493e-01

 32	3.200000000000001e-01
	-1.784294437449023e-15
	-6.795859981199716e-20
	-4.162980109009153e-15
	1.684880817242028e-07
	9.785638909520555e-06
	8.787904642620563e-07
	3.833769396380053e-01

 33	3.300000000000001e-01
	-1.763385658627244e-15
	-7.168403084695617e-20
	-4.228647401583706e-15
	1.858889941574253e-07
	1.093957167544098e-05
	9.823078839287416e-07
	3.833769487322791e-01

 34	3.400000000000001e-01
	-1.742863146056721e-15
	-7.552818886191612e-20
	-4.293820863824734e-15
	2.048897847128201e-07
	1.223099497173649e-05
	1.098039118259122e-06
	3.833769589152297e-01

 35	3.500000000000001e-01
	-1.722732886521649e-15
	-7.949234007879766e-20
	-4.358462982028952e-15
	2.256096322902719e-07
	1.367617914165235e-05
	1.227439002143514e-06
	3.833769703196796e-01

 36	3.600000000000002e-01
	-1.703000241682674e-15
	-8.357771791078277e-20
	-4.422537656168697e-15
	2.481729318773492e-07
	1.529313142766812e-05
	1.372133653306418e-06
	3.833769830946858e-01

 37	3.700000000000002e-01
	-1.683669944148396e-15
	-8.778552549938459e-20
	-4.486010262786110e-15
	2.727090643942689e-07
	1.710171068245723e-05
	1.533938420683704e-06
	3.833769974073555e-01

 38	3.800000000000002e-01
	-1.664746096196229e-15
	-9.211693842783010e-20
	-4.548847710761133e-15
	2.993521007366907e-07
	1.912373090879960e-05
	1.714876927779613e-06
	3.833770134447917e-01

 39	3.900000000000002e-01
	-1.646232171066932e-15
	-9.657310759382229e-20
	-4.611018489871641e-15
	3.282404369748887e-07
	2.138304840517247e-05
	1.917201073672367e-06
	3.833770314161892e-01

 40	4.000000000000002e-01
	-1.628131016741828e-15
	-1.011551622247202e-19
	-4.672492712116611e-15
	3.595163584455022e-07
	2.390562664538462e-05
	2.143411798798102e-06
	3.833770515550066e-01

 41	4.100000000000002e-01
	-1.610444862098187e-15
	-1.058642130174693e-19
	-4.733242145821960e-15
	3.933255313833514e-07
	2.671957246139258e-05
	2.396280361023703e-06
	3.833770741212822e-01

 42	4.200000000000002e-01
	-1.593175325325648e-15
	-1.107013553860694e-19
	-4.793240242597878e-15
	4.298164217814652e-07
	2.985513667698599e-05
	2.678869800959314e-06
	3.833770994039801e-01

 43	4.300000000000002e-01
	-1.576323424476044e-15
	-1.156676727990089e-19
	-4.852462157260778e-15
	4.691396423263111e-07
	3.334467210880558e-05
	2.994556205589169e-06
	3.833771277234089e-01

 44	4.400000000000002e-01
	-1.559889590009564e-15
	-1.207642401897428e-19
	-4.910884760876170e-15
	5.114472295192705e-07
	3.722254186438541e-05
	3.347049308299187e-06
	3.833771594336082e-01

 45	4.500000000000002e-01
	-1.543873679192747e-15
	-1.259921274233839e-19
	-4.968486647117304e-15
	5.568918544444528e-07
	4.152497117701217e-05
	3.740411893952793e-06
	3.833771949247204e-01

 46	4.600000000000002e-01
	-1.528274992197606e-15
	-1.313524028035379e-19
	-5.025248132170812e-15
	6.056259720542341e-07
	4.628983667132448e-05
	4.179077413034030e-06
	3.833772346252242e-01

 47	4.700000000000003e-01
	-1.513092289746897e-15
	-1.368461366036989e-19
	-5.081151248452013e-15
	6.578009152880527e-07
	5.155638798889707e-05
	4.667865152667961e-06
	3.833772790040232e-01

 48	4.800000000000003e-01
	-1.498323812147544e-15
	-1.424744046084733e-19
	-5.136179732421170e-15
	7.135659417852249e-07
	5.736489814246253e-05
	5.211992268493180e-06
	3.833773285722762e-01

 49	4.900000000000003e-01
	-1.483967299552848e-15
	-1.482382916506107e-19
	-5.190319006816006e-15
	7.730672423617344e-07
	6.375624081462293e-05
	5.817081953971027e-06
	3.833773838849200e-01

 50	5.000000000000002e-01
	-1.470020013294056e-15
	-1.541388951309126e-19
	-5.243556157636443e-15
	8.364469217555105e-07
	7.077139505261858e-05
	6.489167016781918e-06
	3.833774455417822e-01

 51	5.100000000000002e-01
	-1.456478758123278e-15
	-1.601773285088793e-19
	-5.295879906233651e-15
	9.038419633627610e-07
	7.845088038919440e-05
	7.234688149154213e-06
	3.833775141882181e-01

 52	5.200000000000002e-01
	-1.443339905212142e-15
	-1.663547247529939e-19
	-5.347280576868479e-15
	9.753831907484161e-07
	8.683412826710422e-05
	8.060486223386868e-06
	3.833775905151587e-01

 53	5.300000000000002e-01
	-1.430599415754385e-15
	-1.726722397407049e-19
	-5.397750060112932e-15
	1.051194239574504e-06
	9.595879865931299e-05
	8.973788017655095e-06
	3.833776752585303e-01

 54	5.400000000000003e-01
	-1.418252865025173e-15
	-1.791310555990159e-19
	-5.447281772473888e-15
	1.131390554214164e-06
	1.058600538308790e-04
	9.982184881495298e-06
	3.833777691979280e-01

 55	5.500000000000003e-01
	-1.406295466755578e-15
	-1.857323839778208e-19
	-5.495870612620186e-15
	1.216078423669588e-06
	1.165698041326539e-04
	1.109360398479426e-05
	3.833778731545078e-01

 56	5.600000000000003e-01
	-1.394722097686920e-15
	-1.924774692490809e-19
	-5.543512914593100e-15
	1.305354071462306e-06
	1.281159433882636e-04
	1.231627195676577e-05
	3.833779879880235e-01

 57	5.700000000000003e-01
	-1.383527322176802e-15
	-1.993675916258524e-19
	-5.590206398375857e-15
	1.399302813891101e-06
	1.405215936659799e-04
	1.365867090869522e-05
	3.833781145930168e-01

 58	5.800000000000003e-01
	-1.372705416736125e-15
	-2.064040701965440e-19
	-5.635950118191659e-15
	1.497998300446131e-06
	1.538043808539380e-04
	1.512948704095367e-05
	3.833782538940741e-01

 59	5.900000000000003e-01
	-1.362250394384405e-15
	-2.135882658702131e-19
	-5.680744408889937e-15
	1.601501849222316e-06
	1.679757633357803e-04
	1.673755225410187e-05
	3.833784068402633e-01

 60	6.000000000000003e-01
	-1.352156028718936e-15
	-2.209215842301235e-19
	-5.724590830769998e-15
	1.709861888904391e-06
	1.830404360798173e-04
	1.849177940779119e-05
	3.833785743986959e-01

 61	6.100000000000003e-01
	-1.342415877601928e-15
	-2.284054782933676e-19
	-5.767492113177756e-15
	1.823113517316125e-06
	1.989958315332414e-04
	2.040109209050911e-05
	3.833787575473293e-01

 62	6.200000000000003e-01
	-1.333023306378265e-15
	-2.360414511753555e-19
	-5.809452097196921e-15
	1.941278184673249e-06
	2.158317368291861e-04
	2.247434996851592e-05
	3.833789572671020e-01

 63	6.300000000000003e-01
	-1.323971510545210e-15
	-2.438310586585993e-19
	-5.850475677740179e-15
	2.064363507594516e-06
	2.335300439981346e-04
	2.472027096402067e-05
	3.833791745335152e-01

 64	6.400000000000003e-01
	-1.315253537803924e-15
	-2.517759116662391e-19
	-5.890568745329002e-15
	2.192363217662159e-06
	2.520646462132234e-04
	2.714735166182529e-05
	3.833794103077878e-01

 65	6.500000000000004e-01
	-1.306862309431096e-15
	-2.598776786411600e-19
	-5.929738127833201e-15
	2.325257245940753e-06
	2.714014887321641e-04
	2.976378745250595e-05
	3.833796655277785e-01

 66	6.600000000000004e-01
	-1.298790640917176e-15
	-2.681380878323730e-19
	-5.967991532423086e-15
	2.463011942430295e-06
	2.914987783155097e-04
	3.257739398259581e-05
	3.833799410988361e-01

 67	6.700000000000004e-01
	-1.291031261825799e-15
	-2.765589294909601e-19
	-6.005337487968429e-15
	2.605580427012253e-06
	3.123073497265456e-04
	3.559553149409555e-05
	3.833802378847711e-01

 68	6.800000000000004e-01
	-1.283576834836449e-15
	-2.851420579783047e-19
	-6.041785288100141e-15
	2.752903066116516e-06
	3.337711826997407e-04
	3.882503359530655e-05
	3.833805566991473e-01

 69	6.900000000000004e-01
	-1.276419973939929e-15
	-2.938893937901046e-19
	-6.077344935131319e-15
	2.904908067158096e-06
	3.558280577560989e-04
	4.227214191329364e-05
	3.833808982970505e-01

 70	7.000000000000004e-01
	-1.269553261763076e-15
	-3.028029254997233e-19
	-6.112027085016081e-15
	3.061512180825020e-06
	3.784103346879393e-04
	4.594244793856427e-05
	3.833812633675688e-01

 71	7.100000000000004e-01
	-1.262969266005743e-15
	-3.118847116254118e-19
	-6.145842993506185e-15
	3.222621499596650e-06
	4.014458336493754e-04
	4.984084319049859e-05
	3.833816525270878e-01

 72	7.200000000000004e-01
	-1.256660554979115e-15
	-3.211368824258595e-19
	-6.178804463647672e-15
	3.388132339474480e-06
	4.248587957475751e-04
	5.397147861524554e-05
	3.833820663135609e-01

 73	7.300000000000004e-01
	-1.250619712240342e-15
	-3.305616416290851e-19
	-6.210923794741876e-15
	3.557932190846346e-06
	4.485708979586795e-04
	5.833773388538358e-05
	3.833825051818826e-01

 74	7.400000000000004e-01
	-1.244839350323524e-15
	-3.401612680999982e-19
	-6.242213732878922e-15
	3.731900723698265e-06
	4.725022961580928e-04
	6.294219701273773e-05
	3.833829695004100e-01

 75	7.500000000000004e-01
	-1.239312123572075e-15
	-3.499381174521173e-19
	-6.272687423135030e-15
	3.909910832038022e-06
	4.965726700647005e-04
	6.778665442275267e-05
	3.833834595487123e-01

 76	7.600000000000005e-01
	-1.234030740081795e-15
	-3.598946236092255e-19
	-6.302358363509898e-15
	4.091829702396132e-06
	5.207022449029768e-04
	7.287209138105796e-05
	3.833839755165324e-01

 77	7.700000000000005e-01
	-1.228987972768067e-15
	-3.700333003227758e-19
	-6.331240360665243e-15
	4.277519891601406e-06
	5.448127664849861e-04
	7.819870241973353e-05
	3.833845175039820e-01

 78	7.800000000000005e-01
	-1.224176669573965e-15
	-3.803567426511369e-19
	-6.359347487512120e-15
	4.466840399663440e-06
	5.688284090648832e-04
	8.376591119061822e-05
	3.833850855228749e-01

 79	7.900000000000005e-01
	-1.219589762839378e-15
	-3.908676284067938e-19
	-6.386694042681171e-15
	4.659647724493463e-06
	5.926765985506771e-04
	8.957239898240673e-05
	3.833856794991728e-01

 80	8.000000000000005e-01
	-1.215220277853847e-15
	-4.015687195773697e-19
	-6.413294511897913e-15
	4.855796886318330e-06
	6.162887372853900e-04
	9.561614098221643e-05
	3.833862992764122e-01

 81	8.100000000000005e-01
	-1.211061340618218e-15
	-4.124628637269221e-19
	-6.439163531273915e-15
	5.055142410940748e-06
	6.396008204416596e-04
	1.018944492436881e-04
	3.833869446200057e-01

 82	8.200000000000005e-01
	-1.207106184842223e-15
	-4.235529953831492e-19
	-6.464315852514007e-15
	5.257539262425523e-06
	6.625539379283659e-04
	1.084040212436583e-04
	3.833876152223022e-01

 83	8.300000000000005e-01
	-1.203348158206656e-15
	-4.348421374168001e-19
	-6.488766310030537e-15
	5.462843717299358e-06
	6.850946594209141e-04
	1.151409928674071e-04
	3.833883107082650e-01

 84	8.400000000000005e-01
	-1.199780727920169e-15
	-4.463334024188298e-19
	-6.512529789946724e-15
	5.670914173893862e-06
	7.071753035593530e-04
	1.221009946562561e-04
	3.833890306416001e-01

 85	8.500000000000005e-01
	-1.196397485601745e-15
	-4.580299940811926e-19
	-6.535621200963530e-15
	5.881611891995511e-06
	7.287540954016652e-04
	1.292792101774701e-04
	3.833897745312477e-01

 86	8.600000000000005e-01
	-1.193192151520561e-15
	-4.699352085867150e-19
	-6.558055447057586e-15
	6.094801659457979e-06
	7.497952187971968e-04
	1.366704354307981e-04
	3.833905418380597e-01

 87	8.700000000000006e-01
	-1.190158578225400e-15
	-4.820524360133856e-19
	-6.579847401971681e-15
	6.310352383845843e-06
	7.702687724120723e-04
	1.442691382835230e-04
	3.833913319815470e-01

 88	8.800000000000006e-01
	-1.187290753596082e-15
	-4.943851617583417e-19
	-6.601011885453923e-15
	6.528137608490108e-06
	7.901506396800591e-04
	1.520695170214410e-04
	3.833921443466013e-01

 89	8.900000000000006e-01
	-1.184582803349277e-15
	-5.069369679863757e-19
	-6.621563641197256e-15
	6.748035953526904e-06
	8.094222839800249e-04
	1.600655572115973e-04
	3.833929782900655e-01

 90	9.000000000000006e-01
	-1.182028993030943e-15
	-5.197115351078616e-19
	-6.641517316427321e-15
	6.969931483543405e-06
	8.280704808870518e-04
	1.682510861887285e-04
	3.833938331470696e-01

 91	9.100000000000006e-01
	-1.179623729527155e-15
	-5.327126432906832e-19
	-6.660887443083408e-15
	7.193714004364678e-06
	8.460869994575972e-04
	1.766198245967676e-04
	3.833947082370677e-01

 92	9.200000000000006e-01
	-1.177361562124765e-15
	-5.459441740105510e-19
	-6.679688420534651e-15
	7.419279292276899e-06
	8.634682442495335e-04
	1.851654345353437e-04
	3.833956028695039e-01

 93	9.300000000000006e-01
	-1.175237183152446e-15
	-5.594101116438443e-19
	-6.697934499772171e-15
	7.646529259597253e-06
	8.802148692112453e-04
	1.938815639755701e-04
	3.833965163490698e-01

 94	9.400000000000006e-01
	-1.173245428232070e-15
	-5.731145451072252e-19
	-6.715639769015867e-15
	7.875372060974582e-06
	8.963313737680961e-04
	2.027618872168472e-04
	3.833974479805166e-01

 95	9.500000000000006e-01
	-1.171381276169434e-15
	-5.870616695476975e-19
	-6.732818140674258e-15
	8.105722145145146e-06
	9.118256904553091e-04
	2.118001412548501e-04
	3.833983970730132e-01

 96	9.600000000000006e-01
	-1.169639848512387e-15
	-6.012557880869570e-19
	-6.749483339594944e-15
	8.337500257085487e-06
	9.267087723550307e-04
	2.209901580189194e-04
	3.833993629440055e-01

 97	9.700000000000006e-01
	-1.168016408803494e-15
	-6.157013136235503e-19
	-6.765648892543398e-15
	8.570633395609143e-06
	9.409941874465432e-04
	2.303258925138018e-04
	3.834003449226380e-01

 98	9.800000000000006e-01
	-1.166506361553202e-15
	-6.304027706963600e-19
	-6.781328118847952e-15
	8.805054731464103e-06
	9.546977258198763e-04
	2.398014469659716e-04
	3.834013423526947e-01

 99	9.900000000000007e-01
	-1.165105250958391e-15
	-6.453647974127337e-19
	-6.796534122149674e-15
	9.040703490910621e-06
	9.678370245723239e-04
	2.494110911284566e-04
	3.834023545950884e-01

 100	1.000000000000001e+00
	-1.163808759390179e-15
	-6.605921474444455e-19
	-6.811279783196515e-15
	9.277524809611621e-06
	9.804312141354031e-04
	2.591492789407903e-04
	3.834033810299354e-01

 101	1.010000000000001e+00
	-1.162612705673566e-15
	-6.760896920946122e-19
	-6.825577753622167e-15
	9.515469561464203e-06
	9.925005887889016e-04
	2.690106617731284e-04
	3.834044210582270e-01

 102	1.020000000000001e+00
	-1.161513043180460e-15
	-6.918624224388662e-19
	-6.839440450651669e-15
	9.754494166749349e-06
	1.004066303223708e-03
	2.789900985064752e-04
	3.834054741031327e-01

 103	1.030000000000001e+00
	-1.160505857756389e-15
	-7.079154515433627e-19
	-6.852880052677004e-15
	9.994560383694314e-06
	1.015150096225268e-03
	2.890826627155408e-04
	3.834065396109490e-01

 104	1.040000000000001e+00
	-1.159587365500206e-15
	-7.242540167629917e-19
	-6.865908495647625e-15
	1.023563508723331e-05
	1.025774041867639e-03
	2.992836472278628e-04
	3.834076170517624e-01

 105	1.050000000000001e+00
	-1.158753910414815e-15
	-7.408834821223920e-19
	-6.878537470222646e-15
	1.047769003843255e-05
	1.035960328034095e-03
	3.095885663338120e-04
	3.834087059198021e-01

 106	1.060000000000001e+00
	-1.158001961945983e-15
	-7.578093407827639e-19
	-6.890778419633172e-15
	1.072070164771592e-05
	1.045731061608721e-03
	3.199931559176885e-04
	3.834098057335832e-01

 107	1.070000000000001e+00
	-1.157328112425130e-15
	-7.750372175973356e-19
	-6.902642538205199e-15
	1.096465073470318e-05
	1.055108099308947e-03
	3.304933717717005e-04
	3.834109160358090e-01

 108	1.080000000000001e+00
	-1.156729074431014e-15
	-7.925728717583327e-19
	-6.914140770495348e-15
	1.120952228715109e-05
	1.064112902841902e-03
	3.410853863427241e-04
	3.834120363930846e-01

 109	1.090000000000001e+00
	-1.156201678084174e-15
	-8.104221995381391e-19
	-6.925283810993846e-15
	1.145530522117785e-05
	1.072766416859127e-03
	3.517655841474430e-04
	3.834131663954926e-01

 110	1.100000000000001e+00
	-1.155742868287050e-15
	-8.285912371277085e-19
	-6.936082104350910e-15
	1.170199214465859e-05
	1.081088968044753e-03
	3.625305560755411e-04
	3.834143056560132e-01

 111	1.110000000000001e+00
	-1.155349701921704e-15
	-8.470861635748766e-19
	-6.946545846084948e-15
	1.194957912540016e-05
	1.089100183591326e-03
	3.733770927834205e-04
	3.834154538098509e-01

 112	1.120000000000001e+00
	-1.155019345016200e-15
	-8.659133038257345e-19
	-6.956684983732765e-15
	1.219806546544660e-05
	1.096818927286315e-03
	3.843021773633521e-04
	3.834166105136511e-01

 113	1.130000000000001e+00
	-1.154749069889908e-15
	-8.850791318716137e-19
	-6.966509218403982e-15
	1.244745348262694e-05
	1.104263251441352e-03
	3.953029774551321e-04
	3.834177754446777e-01

 114	1.140000000000001e+00
	-1.154536252286961e-15
	-9.045902740050411e-19
	-6.976028006703926e-15
	1.269774830024124e-05
	1.111450362938016e-03
	4.063768369499093e-04
	3.834189482999136e-01

 115	1.150000000000001e+00
	-1.154378368506559e-15
	-9.244535121873355e-19
	-6.985250562990955e-15
	1.294895764558274e-05
	1.118396601730443e-03
	4.175212674188507e-04
	3.834201287951355e-01

 116	1.160000000000001e+00
	-1.154272992537895e-15
	-9.446757875312381e-19
	-6.994185861936206e-15
	1.320109165781870e-05
	1.125117430230387e-03
	4.287339393831565e-04
	3.834213166639687e-01

 117	1.170000000000001e+00
	-1.154217793206830e-15
	-9.652642039014540e-19
	-7.002842641355513e-15
	1.345416270559568e-05
	1.131627432098702e-03
	4.400126735266847e-04
	3.834225116569248e-01

 118	1.180000000000001e+00
	-1.154210531340818e-15
	-9.862260316364379e-19
	-7.011229405284939e-15
	1.370818521459780e-05
	1.137940319073949e-03
	4.513554319382093e-04
	3.834237135404532e-01

 119	1.190000000000001e+00
	-1.154249056957817e-15
	-1.007568711394814e-18
	-7.019354427273227e-15
	1.396317550516746e-05
	1.144068944580161e-03
	4.627603094572489e-04
	3.834249220959747e-01

 120	1.200000000000001e+00
	-1.154331306484522e-15
	-1.029299858129702e-18
	-7.027225753865977e-15
	1.421915163999335e-05
	1.150025322968157e-03
	4.742255251853034e-04
	3.834261371189612e-01

 121	1.210000000000001e+00
	-1.154455300008540e-15
	-1.051427265194348e-18
	-7.034851208257970e-15
	1.447613328178512e-05
	1.155820653356327e-03
	4.857494142135541e-04
	3.834273584180222e-01

 122	1.220000000000001e+00
	-1.154619138568654e-15
	-1.073958908582935e-18
	-7.042238394091785e-15
	1.473414156077918e-05
	1.161465347144760e-03
	4.973304196082355e-04
	3.834285858140110e-01

 123	1.230000000000001e+00
	-1.154821001486886e-15
	-1.096902951310025e-18
	-7.049394699381972e-15
	1.499319895185888e-05
	1.166969058380036e-03
	5.089670846861252e-04
	3.834298191391832e-01

 124	1.240000000000001e+00
	-1.155059143745541e-15
	-1.120267747932601e-18
	-7.056327300545809e-15
	1.525332916102488e-05
	1.172340716245843e-03
	5.206580456049736e-04
	3.834310582363628e-01

 125	1.250000000000001e+00
	-1.155331893412041e-15
	-1.144061849218491e-18
	-7.063043166522778e-15
	1.551455702090984e-05
	1.177588559045685e-03
	5.324020242867875e-04
	3.834323029581669e-01

 126	1.260000000000001e+00
	-1.155637649113946e-15
	-1.168294006965466e-18
	-7.069549062966248e-15
	1.577690839500343e-05
	1.182720169128566e-03
	5.441978216860824e-04
	3.834335531662562e-01

 127	1.270000000000001e+00
	-1.155974877566152e-15
	-1.192973178975057e-18
	-7.075851556492195e-15
	1.604041009023102e-05
	1.187742508285958e-03
	5.560443114100810e-04
	3.834348087306197e-01

 128	1.280000000000001e+00
	-1.156342111152072e-15
	-1.218108534185693e-18
	-7.081957018970665e-15
	1.630508977751346e-05
	1.192661953218724e-03
	5.679404336934587e-04
	3.834360695289132e-01

 129	1.290000000000001e+00
	-1.156737945560080e-15
	-1.243709457969137e-18
	-7.087871631847111e-15
	1.657097591992712e-05
	1.197484330736446e-03
	5.798851897266122e-04
	3.834373354458249e-01

 130	1.300000000000001e+00
	-1.157161037476330e-15
	-1.269785557595796e-18
	-7.093601390481571e-15
	1.683809770807941e-05
	1.202214952408516e-03
	5.918776363333036e-04
	3.834386063724750e-01

 131	1.310000000000001e+00
	-1.157610102334896e-15
	-1.296346667872865e-18
	-7.099152108494702e-15
	1.710648500231335e-05
	1.206858648437096e-03
	6.039168809909655e-04
	3.834398822058705e-01

 132	1.320000000000001e+00
	-1.158083912125696e-15
	-1.323402856960851e-18
	-7.104529422110600e-15
	1.737616828136176e-05
	1.211419800567104e-03
	6.160020771849687e-04
	3.834411628483791e-01

 133	1.330000000000001e+00
	-1.158581293260658e-15
	-1.350964432373622e-18
	-7.109738794487265e-15
	1.764717859707565e-05
	1.215902373887610e-03
	6.281324200864157e-04
	3.834424482072488e-01

 134	1.340000000000001e+00
	-1.159101124498318e-15
	-1.379041947167228e-18
	-7.114785520026326e-15
	1.791954753486223e-05
	1.220309947413653e-03
	6.403071425418057e-04
	3.834437381941601e-01

 135	1.350000000000001e+00
	-1.159642334926745e-15
	-1.407646206323347e-18
	-7.119674728654527e-15
	1.819330717947935e-05
	1.224645743367187e-03
	6.525255113619553e-04
	3.834450327248010e-01

 136	1.360000000000001e+00
	-1.160203902004853e-15
	-1.436788273332856e-18
	-7.124411390069923e-15
	1.846849008584451e-05
	1.228912655101530e-03
	6.647868238968232e-04
	3.834463317184981e-01

 137	1.370000000000001e+00
	-1.160784849661497e-15
	-1.466479476985892e-18
	-7.129000317946916e-15
	1.874512925453285e-05
	1.233113273635745e-03
	6.770904048825472e-04
	3.834476350978535e-01

 138	1.380000000000001e+00
	-1.161384246452120e-15
	-1.496731418374625e-18
	-7.133446174094410e-15
	1.902325811165145e-05
	1.237249912783799e-03
	6.894356035466784e-04
	3.834489427884095e-01

 139	1.390000000000001e+00
	-1.162001203772364e-15
	-1.527555978114772e-18
	-7.137753472562151e-15
	1.930291049279237e-05
	1.241324632878887e-03
	7.018217909575129e-04
	3.834502547183739e-01

 140	1.400000000000001e+00
	-1.162634874127867e-15
	-1.558965323793481e-18
	-7.141926583691000e-15
	1.958412063078530e-05
	1.245339263106463e-03
	7.142483576036238e-04
	3.834515708183234e-01

 141	1.410000000000001e+00
	-1.163284449459602e-15
	-1.590971917649596e-18
	-7.145969738103222e-15
	1.986692314698253e-05
	1.249295422469817e-03
	7.267147111897101e-04
	3.834528910209666e-01

 142	1.420000000000001e+00
	-1.163949159523874e-15
	-1.623588524494455e-18
	-7.149887030629345e-15
	2.015135304582767e-05
	1.253194539420773e-03
	7.392202746352914e-04
	3.834542152609140e-01

 143	1.430000000000001e+00
	-1.164628270326034e-15
	-1.656828219880057e-18
	-7.153682424168852e-15
	2.043744571247370e-05
	1.257037870194818e-03
	7.517644842630846e-04
	3.834555434744745e-01

 144	1.440000000000001e+00
	-1.165321082606972e-15
	-1.690704398522834e-18
	-7.157359753482013e-15
	2.072523691323186e-05
	1.260826515895207e-03
	7.643467881643453e-04
	3.834568755994636e-01

 145	1.450000000000001e+00
	-1.166026930381380e-15
	-1.725230782991218e-18
	-7.160922728910808e-15
	2.101476279864663e-05
	1.264561438374454e-03
	7.769666447288700e-04
	3.834582115750450e-01

 146	1.460000000000001e+00
	-1.166745179526618e-15
	-1.760421432664753e-18
	-7.164374940027229e-15
	2.130605990900836e-05
	1.268243474964528e-03
	7.896235213279519e-04
	3.834595513415680e-01

 147	1.470000000000001e+00
	-1.167475226421195e-15
	-1.796290752974679e-18
	-7.167719859207398e-15
	2.159916518212670e-05
	1.271873352108722e-03
	8.023168931389776e-04
	3.834608948404437e-01

 148	1.480000000000001e+00
	-1.168216496631640e-15
	-1.832853504933726e-18
	-7.170960845130467e-15
	2.189411596320368e-05
	1.275451697949365e-03
	8.150462421010204e-04
	3.834622420140157e-01

 149	1.490000000000001e+00
	-1.168968443646637e-15
	-1.870124814965651e-18
	-7.174101146201366e-15
	2.219095001665635e-05
	1.278979053925694e-03
	8.278110559912181e-04
	3.834635928054576e-01

 150	1.500000000000001e+00
	-1.169730547657213e-15
	-1.908120185043469e-18
	-7.177143903896841e-15
	2.248970553975202e-05
	1.282455885436121e-03
	8.406108276123387e-04
	3.834649471586774e-01

 151	1.510000000000001e+00
	-1.170502314381830e-15
	-1.946855503147427e-18
	-7.180092156034346e-15
	2.279042117793113e-05
	1.285882591618376e-03
	8.534450540824533e-04
	3.834663050182293e-01

 152	1.520000000000001e+00
	-1.171283273935151e-15
	-1.986347054052077e-18
	-7.182948839963632e-15
	2.309313604170215e-05
	1.289259514299880e-03
	8.663132362181179e-04
	3.834676663292534e-01

 153	1.530000000000001e+00
	-1.172072979739235e-15
	-2.026611530454447e-18
	-7.185716795681160e-15