Title: ** sch_path: /home/andylithia/openmpw/project-yatsuhashi-chip1/xschem/gmid_test/nmos_test.sch
Date: Tue Jul 19 23:15:45  2022
Plotname: DC transfer characteristic
Flags: real
No. Variables: 8
No. Points: 181
Variables:
	0	v(v-sweep)	voltage
	1	@m.xm1.msky130_fd_pr__nfet_01v8[cgb]	capacitance
	2	@m.xm1.msky130_fd_pr__nfet_01v8[cgd]	capacitance
	3	@m.xm1.msky130_fd_pr__nfet_01v8[cgs]	capacitance
	4	@m.xm1.msky130_fd_pr__nfet_01v8[gds]	admittance
	5	@m.xm1.msky130_fd_pr__nfet_01v8[gm]	admittance
	6	i(@m.xm1.msky130_fd_pr__nfet_01v8[id])	current
	7	v(@m.xm1.msky130_fd_pr__nfet_01v8[vth])	voltage
Values:
 0	0.000000000000000e+00
	-8.311636936880361e-15
	-4.649752205470997e-19
	-1.379888856963308e-14
	1.166601284056358e-08
	4.982330548553275e-07
	5.755744792051874e-08
	2.275349635641968e-01

 1	1.000000000000000e-02
	-8.216266149213448e-15
	-4.769295115233533e-19
	-1.402055042779175e-14
	1.268581003785944e-08
	5.426800131446980e-07
	6.275885911842925e-08
	2.275349640154419e-01

 2	2.000000000000000e-02
	-8.121904555819175e-15
	-4.891633467470133e-19
	-1.424235012093511e-14
	1.379053944418790e-08
	5.910804065740863e-07
	6.842422047050193e-08
	2.275349645071676e-01

 3	3.000000000000000e-02
	-8.028577989625377e-15
	-5.016822332828508e-19
	-1.446419543991493e-14
	1.498676281602189e-08
	6.437943393314743e-07
	7.459483908807262e-08
	2.275349650430179e-01

 4	4.000000000000000e-02
	-7.936311752383605e-15
	-5.144917622549258e-19
	-1.468599418644437e-14
	1.628148996278001e-08
	7.012169251550749e-07
	8.131579522539000e-08
	2.275349656269746e-01

 5	5.000000000000000e-02
	-7.845130561524334e-15
	-5.275976101132262e-19
	-1.490765431378605e-14
	1.768220298345189e-08
	7.637820100877369e-07
	8.863631065897882e-08
	2.275349662633950e-01

 6	6.000000000000000e-02
	-7.755058498913085e-15
	-5.410055399494020e-19
	-1.512908406682454e-14
	1.919688117269621e-08
	8.319663099455297e-07
	9.661015633370950e-08
	2.275349669570511e-01

 7	7.000000000000001e-02
	-7.666118961650400e-15
	-5.547214028638502e-19
	-1.535019212109423e-14
	2.083402655089228e-08
	9.062940049950522e-07
	1.052961036326724e-07
	2.275349677131646e-01

 8	8.000000000000000e-02
	-7.578334615050811e-15
	-5.687511393858884e-19
	-1.557088772033760e-14
	2.260268996528739e-08
	9.873418372895526e-07
	1.147584240676744e-07
	2.275349685374602e-01

 9	9.000000000000000e-02
	-7.491727347926430e-15
	-5.831007809490766e-19
	-1.579108081217710e-14
	2.451249770179217e-08
	1.075744758967476e-06
	1.250674426561063e-07
	2.275349694362167e-01

 10	9.999999999999999e-02
	-7.406318230291738e-15
	-5.977764514237349e-19
	-1.601068218149262e-14
	2.657367853909639e-08
	1.172202182489327e-06
	1.363001507464668e-07
	2.275349704163185e-01

 11	1.100000000000000e-01
	-7.322127473595601e-15
	-6.127843687086088e-19
	-1.622960358110718e-14
	2.879709116868316e-08
	1.277484886188596e-06
	1.485408845768239e-07
	2.275349714853350e-01

 12	1.200000000000000e-01
	-7.239174393575835e-15
	-6.281308463836514e-19
	-1.644775785939860e-14
	3.119425189603123e-08
	1.392442630534282e-06
	1.618820763947688e-07
	2.275349726515751e-01

 13	1.300000000000000e-01
	-7.157477375820818e-15
	-6.438222954259705e-19
	-1.666505908446758e-14
	3.377736252982395e-08
	1.518012542022892e-06
	1.764250855293468e-07
	2.275349739241810e-01

 14	1.400000000000000e-01
	-7.077053844110720e-15
	-6.598652259909939e-19
	-1.688142266451209e-14
	3.655933835740326e-08
	1.655228322501639e-06
	1.922811173797080e-07
	2.275349753132043e-01

 15	1.500000000000000e-01
	-6.997920231599607e-15
	-6.762662492606212e-19
	-1.709676546407419e-14
	3.955383609600230e-08
	1.805230341815585e-06
	2.095722388642837e-07
	2.275349768297191e-01

 16	1.600000000000000e-01
	-6.920091954887039e-15
	-6.930320793605440e-19
	-1.731100591584819e-14
	4.277528170055535e-08
	1.969276670803158e-06
	2.284324994498291e-07
	2.275349784859243e-01

 17	1.700000000000000e-01
	-6.843583391016465e-15
	-7.101695353489499e-19
	-1.752406412775797e-14
	4.623889790007918e-08
	2.148755109648284e-06
	2.490091674407118e-07
	2.275349802952608e-01

 18	1.800000000000000e-01
	-6.768407857424740e-15
	-7.276855432779236e-19
	-1.773586198503598e-14
	4.996073132584824e-08
	2.345196263237303e-06
	2.714640917433117e-07
	2.275349822725487e-01

 19	1.900000000000000e-01
	-6.694577594855731e-15
	-7.455871383303133e-19
	-1.794632324705882e-14
	5.395767908583398e-08
	2.560287710250557e-06
	2.959751998135570e-07
	2.275349844341478e-01

 20	2.000000000000000e-01
	-6.622103753238204e-15
	-7.638814670335058e-19
	-1.815537363872061e-14
	5.824751463122197e-08
	2.795889306022495e-06
	3.227381429310321e-07
	2.275349867981109e-01

 21	2.100000000000000e-01
	-6.550996380516835e-15
	-7.825757895523722e-19
	-1.836294093614959e-14
	6.284891275222378e-08
	3.054049650498478e-06
	3.519681003014193e-07
	2.275349893843643e-01

 22	2.200000000000001e-01
	-6.481264414413752e-15
	-8.016774820632718e-19
	-1.856895504659887e-14
	6.778147353199278e-08
	3.337023741673862e-06
	3.839017537495126e-07
	2.275349922149211e-01

 23	2.300000000000001e-01
	-6.412915677086112e-15
	-8.211940392109466e-19
	-1.877334808237092e-14
	7.306574507920820e-08
	3.647291821491627e-06
	4.187994449038934e-07
	2.275349953140939e-01

 24	2.400000000000001e-01
	-6.345956872635127e-15
	-8.411330766507958e-19
	-1.897605442865933e-14
	7.872324485185501e-08
	3.987579405079597e-06
	4.569475267656892e-07
	2.275349987087475e-01

 25	2.500000000000001e-01
	-6.280393587410958e-15
	-8.615023336778592e-19
	-1.917701080521991e-14
	8.477647937699631e-08
	4.360878465228497e-06
	4.986609213701388e-07
	2.275350024285541e-01

 26	2.600000000000001e-01
	-6.216230293048613e-15
	-8.823096759449370e-19
	-1.937615632180797e-14
	9.124896216388074e-08
	4.770469721969226e-06
	5.442858948606843e-07
	2.275350065063047e-01

 27	2.700000000000001e-01
	-6.153470352160030e-15
	-9.035630982717434e-19
	-1.957343252734673e-14
	9.816522960072350e-08
	5.219945961868382e-06
	5.942030606703595e-07
	2.275350109782182e-01

 28	2.800000000000001e-01
	-6.092116026599352e-15
	-9.252707275470689e-19
	-1.976878345281559e-14
	1.055508546188918e-07
	5.713236283128111e-06
	6.488306206109629e-07
	2.275350158842984e-01

 29	2.900000000000001e-01
	-6.032168488210216e-15
	-9.474408257261269e-19
	-1.996215564787309e-14
	1.134324579022239e-07
	6.254631130726367e-06
	7.086278524746421e-07
	2.275350212687159e-01

 30	3.000000000000001e-01
	-5.973627831956170e-15
	-9.700817929247349e-19
	-2.015349821125380e-14
	1.218377164138116e-07
	6.848807950706628e-06
	7.740988512214402e-07
	2.275350271802239e-01

 31	3.100000000000001e-01
	-5.916493091329322e-15
	-9.932021706128633e-19
	-2.034276281500080e-14
	1.307953690079813e-07
	7.500857254455636e-06
	8.457965289280731e-07
	2.275350336726145e-01

 32	3.200000000000001e-01
	-5.860762255925620e-15
	-1.016810644909322e-18
	-2.052990372261962e-14
	1.403352188914987e-07
	8.216308842632170e-06
	9.243268763775745e-07
	2.275350408051969e-01

 33	3.300000000000001e-01
	-5.806432291070765e-15
	-1.040916049979819e-18
	-2.071487780125833e-14
	1.504881326953809e-07
	9.001157894677697e-06
	1.010353486448493e-06
	2.275350486433326e-01

 34	3.400000000000001e-01
	-5.753499159375458e-15
	-1.065527371540415e-18
	-2.089764452804126e-14
	1.612860359173024e-07
	9.861890584043756e-06
	1.104602336293597e-06
	2.275350572589973e-01

 35	3.500000000000001e-01
	-5.701957844095732e-15
	-1.090653750468623e-18
	-2.107816599070086e-14
	1.727619044946818e-07
	1.080550883203509e-05
	1.207866821663253e-06
	2.275350667313830e-01

 36	3.600000000000002e-01
	-5.651802374170807e-15
	-1.116304486524340e-18
	-2.125640688266981e-14
	1.849497522702161e-07
	1.183955376528042e-05
	1.321013032617261e-06
	2.275350771475555e-01

 37	3.700000000000002e-01
	-5.603025850808525e-15
	-1.142489042182755e-18
	-2.143233449281311e-14
	1.978846141154453e-07
	1.297212739425775e-05
	1.444985255280001e-06
	2.275350886031244e-01

 38	3.800000000000002e-01
	-5.555620475487277e-15
	-1.169217046581661e-18
	-2.160591868999199e-14
	2.116025244837497e-07
	1.421191198412196e-05
	1.580811679233547e-06
	2.275351012029894e-01

 39	3.900000000000002e-01
	-5.509577579242416e-15
	-1.196498299585400e-18
	-2.177713190266701e-14
	2.261404911727897e-07
	1.556818654561181e-05
	1.729610284635546e-06
	2.275351150620961e-01

 40	4.000000000000002e-01
	-5.464887653104769e-15
	-1.224342775967861e-18
	-2.194594909375773e-14
	2.415364640876629e-07
	1.705083983447106e-05
	1.892594877223579e-06
	2.275351303062495e-01

 41	4.100000000000002e-01
	-5.421540379559734e-15
	-1.252760629716767e-18
	-2.211234773098729e-14
	2.578292988107923e-07
	1.867037921421276e-05
	2.071081233078158e-06
	2.275351470729459e-01

 42	4.200000000000002e-01
	-5.379524664896506e-15
	-1.281762198462268e-18
	-2.227630775294813e-14
	2.750587148026298e-07
	2.043793471087913e-05
	2.266493308425021e-06
	2.275351655122596e-01

 43	4.300000000000002e-01
	-5.338828672318399e-15
	-1.311358008031792e-18
	-2.243781153113313e-14
	2.932652480795375e-07
	2.236525757152488e-05
	2.480369462950273e-06
	2.275351857877412e-01

 44	4.400000000000002e-01
	-5.299439855687957e-15
	-1.341558777134247e-18
	-2.259684382818118e-14
	3.124901982417629e-07
	2.446471263232195e-05
	2.714368638178896e-06
	2.275352080773318e-01

 45	4.500000000000002e-01
	-5.261344993783043e-15
	-1.372375422175995e-18
	-2.275339175259062e-14
	3.327755697554964e-07
	2.674926380930946e-05
	2.970276425548355e-06
	2.275352325743215e-01

 46	4.600000000000002e-01
	-5.224530224943318e-15
	-1.403819062211602e-18
	-2.290744471015748e-14
	3.541640074294287e-07
	2.923245204672160e-05
	3.250010952036518e-06
	2.275352594882797e-01

 47	4.700000000000003e-01
	-5.188981081990367e-15
	-1.435901024032101e-18
	-2.305899435239570e-14
	3.766987260676219e-07
	3.192836509615967e-05
	3.555628504727530e-06
	2.275352890460202e-01

 48	4.800000000000003e-01
	-5.154682527308615e-15
	-1.468632847393875e-18
	-2.320803452219793e-14
	4.004234343276805e-07
	3.485159855616158e-05
	3.889328809699385e-06
	2.275353214925199e-01

 49	4.900000000000003e-01
	-5.121618987978669e-15
	-1.502026290391079e-18
	-2.335456119699341e-14
	4.253822528658464e-07
	3.801720767711608e-05
	4.253459875271553e-06
	2.275353570918428e-01

 50	5.000000000000002e-01
	-5.089774390859207e-15
	-1.536093334975053e-18
	-2.349857242965833e-14
	4.516196269091677e-07
	4.144064953184790e-05
	4.650522305162722e-06
	2.275353961280108e-01

 51	5.100000000000002e-01
	-5.059132197518882e-15
	-1.570846192623442e-18
	-2.364006828742969e-14
	4.791802334589388e-07
	4.513771526790938e-05
	5.083172983674173e-06
	2.275354389058172e-01

 52	5.200000000000002e-01
	-5.029675438924316e-15
	-1.606297310163101e-18
	-2.377905078907028e-14
	5.081088833990069e-07
	4.912445229351141e-05
	5.554228032839091e-06
	2.275354857515914e-01

 53	5.300000000000002e-01
	-5.001386749795876e-15
	-1.642459375749995e-18
	-2.391552384052698e-14
	5.384504188571601e-07
	5.341707640435059e-05
	6.066664940762009e-06
	2.275355370138594e-01

 54	5.400000000000003e-01
	-4.974248402548445e-15
	-1.679345325009534e-18
	-2.404949316931826e-14
	5.702496062466475e-07
	5.803187403187861e-05
	6.623623761300434e-06
	2.275355930639042e-01

 55	5.500000000000003e-01
	-4.948242340739700e-15
	-1.716968347341444e-18
	-2.418096625788043e-14
	6.035510254975792e-07
	6.298509498264623e-05
	7.228407287983409e-06
	2.275356542962086e-01

 56	5.600000000000003e-01
	-4.923350211954034e-15
	-1.755341892392830e-18
	-2.430995227609439e-14
	6.383989560732886e-07
	6.829283624033574e-05
	7.884480109764669e-06
	2.275357211287576e-01

 57	5.700000000000003e-01
	-4.899553400055925e-15
	-1.794479676703813e-18
	-2.443646201320723e-14
	6.748372604537825e-07
	7.397091761328670e-05
	8.595466462981051e-06
	2.275357940031538e-01

 58	5.800000000000003e-01
	-4.876833056752291e-15
	-1.834395690529294e-18
	-2.456050780935297e-14
	7.129092658552895e-07
	8.003475022630493e-05
	9.365146802796203e-06
	2.275358733845942e-01

 59	5.900000000000003e-01
	-4.855170132408450e-15
	-1.875104204842052e-18
	-2.468210348687003e-14
	7.526576450409233e-07
	8.649919907137862e-05
	1.019745302849276e-05
	2.275359597616037e-01

 60	6.000000000000003e-01
	-4.834545406068349e-15
	-1.916619778520792e-18
	-2.480126428160145e-14
	7.941242971598565e-07
	9.337844104185901e-05
	1.109646231018181e-05
	2.275360536455795e-01

 61	6.100000000000003e-01
	-4.814939514634690e-15
	-1.958957265728632e-18
	-2.491800677435549e-14
	8.373502296300200e-07
	1.006858200728291e-04
	1.206638947975990e-05
	2.275361555700932e-01

 62	6.200000000000003e-01
	-4.796332981169903e-15
	-2.002131823486114e-18
	-2.503234882269445e-14
	8.823754421499623e-07
	1.084337011904132e-04
	1.311157796609757e-05
	2.275362660899472e-01

 63	6.300000000000003e-01
	-4.778706242284354e-15
	-2.046158919444441e-18
	-2.514430949320863e-14
	9.292388139868751e-07
	1.166333254283783e-04
	1.423648927327982e-05
	2.275363857799725e-01

 64	6.400000000000003e-01
	-4.762039674582711e-15
	-2.091054339863314e-18
	-2.525390899442332e-14
	9.779779957381770e-07
	1.252946676953965e-04
	1.544569102096507e-05
	2.275365152335797e-01

 65	6.500000000000004e-01
	-4.746313620144254e-15
	-2.136834197799822e-18
	-2.536116861047615e-14
	1.028629306801492e-06
	1.344262997650465e-04
	1.674384358724943e-05
	2.275366550610149e-01

 66	6.600000000000004e-01
	-4.731508411018016e-15
	-2.183514941512703e-18
	-2.546611063569173e-14
	1.081227639809939e-06
	1.440352606078546e-04
	1.813568541641864e-05
	2.275368058873911e-01

 67	6.700000000000004e-01
	-4.717604392717151e-15
	-2.231113363089022e-18
	-2.556875831017162e-14
	1.135806373295860e-06
	1.541269362863850e-04
	1.962601707622511e-05
	2.275369683504231e-01

 68	6.800000000000004e-01
	-4.704581946702112e-15
	-2.279646607297965e-18
	-2.566913575650647e-14
	1.192397293833731e-06
	1.647049515872908e-04
	2.121968417133958e-05
	2.275371430979519e-01

 69	6.900000000000004e-01
	-4.692421511845254e-15
	-2.329132180679126e-18
	-2.576726791770867e-14
	1.251030528882415e-06
	1.757710754668207e-04
	2.292155924093257e-05
	2.275373307852038e-01

 70	7.000000000000004e-01
	-4.681103604874165e-15
	-2.379587960870622e-18
	-2.586318049645368e-14
	1.311734491496440e-06
	1.873251422380422e-04
	2.473652278839947e-05
	2.275375320718840e-01

 71	7.100000000000004e-01
	-4.670608839793544e-15
	-2.431032206184888e-18
	-2.595689989570970e-14
	1.374535838006323e-06
	1.993649902305014e-04
	2.666944360958447e-05
	2.275377476190411e-01

 72	7.200000000000004e-01
	-4.660917946289927e-15
	-2.483483565437106e-18
	-2.604845316082542e-14
	1.439459439678930e-06
	2.118864194089105e-04
	2.872515860196875e-05
	2.275379780858296e-01

 73	7.300000000000004e-01
	-4.652011787125445e-15
	-2.536961088036002e-18
	-2.613786792313829e-14
	1.506528369262031e-06
	2.248831691515070e-04
	3.090845225076096e-05
	2.275382241261136e-01

 74	7.400000000000004e-01
	-4.643871374530673e-15
	-2.591484234341943e-18
	-2.622517234515619e-14
	1.575763903193188e-06
	2.383469170667323e-04
	3.322403599823139e-05
	2.275384863850310e-01

 75	7.500000000000004e-01
	-4.636477885608463e-15
	-2.647072886301319e-18
	-2.631039506735852e-14
	1.647185540114900e-06
	2.522672993764807e-04
	3.567652770968268e-05
	2.275387654955029e-01

 76	7.600000000000005e-01
	-4.629812676763686e-15
	-2.703747358364718e-18
	-2.639356515665426e-14
	1.720811036187067e-06
	2.666319530236797e-04
	3.827043145287370e-05
	2.275390620747633e-01

 77	7.700000000000005e-01
	-4.623857297175606e-15
	-2.761528408697343e-18
	-2.647471205652795e-14
	1.796656457527785e-06
	2.814265792808503e-04
	4.101011780737792e-05
	2.275393767209429e-01

 78	7.800000000000005e-01
	-4.618593501331677e-15
	-2.820437250689903e-18
	-2.655386553889735e-14
	1.874736249947052e-06
	2.966350282543436e-04
	4.389980491618603e-05
	2.275397100097615e-01

 79	7.900000000000005e-01
	-4.614003260643411e-15
	-2.880495564778462e-18
	-2.663105565770016e-14
	1.955063325969216e-06
	3.122394033063251e-04
	4.694354048392767e-05
	2.275400624913596e-01

 80	8.000000000000005e-01
	-4.610068774166496e-15
	-2.941725510583817e-18
	-2.670631270422110e-14
	2.037649168971605e-06
	3.282201840629104e-04
	5.014518491448696e-05
	2.275404346873342e-01

 81	8.100000000000005e-01
	-4.606772478448685e-15
	-3.004149739378105e-18
	-2.677966716416454e-14
	2.122503954103472e-06
	3.445563663516471e-04
	5.350839576580843e-05
	2.275408270879939e-01

 82	8.200000000000005e-01
	-4.604097056530083e-15
	-3.067791406889723e-18
	-2.685114967647350e-14
	2.209636685493972e-06
	3.612256171229859e-04
	5.703661368161924e-05
	2.275412401498975e-01

 83	8.300000000000005e-01
	-4.602025446121853e-15
	-3.132674186456636e-18
	-2.692079099388921e-14
	2.299055349114301e-06
	3.782044421658025e-04
	6.073304993906678e-05
	2.275416742936841e-01

 84	8.400000000000005e-01
	-4.600540846989533e-15
	-3.198822282538086e-18
	-2.698862194524257e-14
	2.390767080529994e-06
	3.954683642320377e-04
	6.460067572832738e-05
	2.275421299022459e-01

 85	8.500000000000005e-01
	-4.599626727568642e-15
	-3.266260444596986e-18
	-2.705467339946290e-14
	2.484778346668426e-06
	4.129921090444261e-04
	6.864221325564009e-05
	2.275426073192322e-01

 86	8.600000000000005e-01
	-4.599266830840139e-15
	-3.335013981363169e-18
	-2.711897623128668e-14
	2.581095140634851e-06
	4.307497965762234e-04
	7.286012873545989e-05
	2.275431068479437e-01

 87	8.700000000000006e-01
	-4.599445179493914e-15
	-3.405108775490715e-18
	-2.718156128864471e-14
	2.679723188540934e-06
	4.487151349637182e-04
	7.725662731112879e-05
	2.275436287505881e-01

 88	8.800000000000006e-01
	-4.600146080408951e-15
	-3.476571298620460e-18
	-2.724245936170269e-14
	2.780668167263419e-06
	4.668616144398183e-04
	8.183364991715257e-05
	2.275441732479170e-01

 89	8.900000000000006e-01
	-4.601354128478686e-15
	-3.549428626861897e-18
	-2.730170115352760e-14
	2.883935932027798e-06
	4.851626987574800e-04
	8.659287207040607e-05
	2.275447405192513e-01

 90	9.000000000000006e-01
	-4.603054209809854e-15
	-3.623708456707105e-18
	-2.735931725234977e-14
	2.989532752714068e-06
	5.035920117011471e-04
	9.153570455290092e-05
	2.275453307028415e-01

 91	9.100000000000006e-01
	-4.605231504324090e-15
	-3.699439121390805e-18
	-2.741533810538673e-14
	3.097465557806566e-06
	5.221235164569419e-04
	9.666329592554124e-05
	2.275459438966113e-01

 92	9.200000000000006e-01
	-4.607871487789828e-15
	-3.776649607710668e-18
	-2.746979399419508e-14
	3.207742184959075e-06
	5.407316858221722e-04
	1.019765367910470e-04
	2.275465801592180e-01

 93	9.300000000000006e-01
	-4.610959933313021e-15
	-3.855369573323642e-18
	-2.752271501151257e-14
	3.320371637216817e-06
	5.593916614742910e-04
	1.074760657052092e-04
	2.275472395114084e-01

 94	9.400000000000006e-01
	-4.614482912314390e-15
	-3.935629364533129e-18
	-2.757413103955209e-14
	3.435364344027717e-06
	5.780794007814035e-04
	1.131622766191415e-04
	2.275479219376564e-01

 95	9.500000000000006e-01
	-4.618426795020555e-15
	-4.017460034582999e-18
	-2.762407172970766e-14
	3.552732426284660e-06
	5.967718099131376e-04
	1.190353277214041e-04
	2.275486273880585e-01

 96	9.600000000000006e-01
	-4.622778250495578e-15
	-4.100893362475924e-18
	-2.767256648363160e-14
	3.672489964766693e-06
	6.154468622946765e-04
	1.250951515379021e-04
	2.275493557804239e-01

 97	9.700000000000006e-01
	-4.627524246239561e-15
	-4.185961872332512e-18
	-2.771964443564054e-14
	3.794653271486732e-06
	6.340837017306098e-04
	1.313414661393172e-04
	2.275501070025353e-01

 98	9.800000000000006e-01
	-4.632652047380028e-15
	-4.272698853309686e-18
	-2.776533443640742e-14
	3.919241163605756e-06
	6.526627298026769e-04
	1.377737873005079e-04
	2.275508809145713e-01

 99	9.900000000000007e-01
	-4.638149215480889e-15
	-4.361138380095754e-18
	-2.780966503789673e-14
	4.046275239735462e-06
	6.711656774104459e-04
	1.443914414537151e-04
	2.275516773516134e-01

 100	1.000000000000001e+00
	-4.644003606993714e-15
	-4.451315334003476e-18
	-2.785266447949887e-14
	4.175780158621428e-06
	6.895756605714688e-04
	1.511935792773660e-04
	2.275524961262289e-01

 101	1.010000000000001e+00
	-4.650203371374900e-15
	-4.543265424678411e-18
	-2.789436067531992e-14
	4.307783920374548e-06
	7.078772208234130e-04
	1.581791897645970e-04
	2.275533370310881e-01

 102	1.020000000000001e+00
	-4.656736948891819e-15
	-4.637025212444796e-18
	-2.793478120258298e-14
	4.442318150598879e-06
	7.260563507719532e-04
	1.653471146200836e-04
	2.275541998415938e-01

 103	1.030000000000001e+00
	-4.663593068140226e-15
	-4.732632131309767e-18
	-2.797395329109734e-14
	4.579418387947422e-06
	7.441005055027300e-04
	1.726960628401185e-04
	2.275550843184687e-01

 104	1.040000000000001e+00
	-4.670760743294402e-15
	-4.830124512647574e-18
	-2.801190381375171e-14
	4.719124375822340e-06
	7.619986007219562e-04
	1.802246253388204e-04
	2.275559902103077e-01

 105	1.050000000000001e+00
	-4.678229271110865e-15
	-4.929541609586553e-18
	-2.804865927798886e-14
	4.861480359122651e-06
	7.797409986081573e-04
	1.879312894926299e-04
	2.275569172560462e-01

 106	1.060000000000001e+00
	-4.685988227705634e-15
	-5.030923622122940e-18
	-2.808424581821812e-14
	5.006535387129619e-06
	7.973194824472369e-04
	1.958144534855524e-04
	2.275578651873339e-01

 107	1.070000000000001e+00
	-4.694027465124167e-15
	-5.134311722984923e-18
	-2.811868918912465e-14
	5.154343623808191e-06
	8.147272211856810e-04
	2.038724403486768e-04
	2.275588337307921e-01

 108	1.080000000000001e+00
	-4.702337107722570e-15
	-5.239748084273389e-18
	-2.815201475983290e-14
	5.304964666991935e-06
	8.319587250737444e-04
	2.121035115990477e-04
	2.275598226101483e-01

 109	1.090000000000001e+00
	-4.710907548377545e-15
	-5.347275904903537e-18
	-2.818424750888449e-14
	5.458463878110195e-06
	8.490097935841142e-04
	2.205058803947930e-04
	2.275608315482227e-01

 110	1.100000000000001e+00
	-4.719729444542121e-15
	-5.456939438876304e-18
	-2.821541201999015e-14
	5.614912724310012e-06
	8.658774567838564e-04
	2.290777241352263e-04
	2.275618602687731e-01

 111	1.110000000000001e+00
	-4.728793714163293e-15
	-5.568784024406230e-18
	-2.824553247851636e-14
	5.774389135023981e-06
	8.825599113113006e-04
	2.378171964463225e-04
	2.275629084981859e-01

 112	1.120000000000001e+00
	-4.738091531476667e-15
	-5.682856113934741e-18
	-2.827463266866927e-14
	5.936977875239640e-06
	8.990564520673745e-04
	2.467224385032772e-04
	2.275639759669963e-01

 113	1.130000000000001e+00
	-4.747614322693142e-15
	-5.799203305060046e-18
	-2.830273597133823e-14
	6.102770937938442e-06
	9.153674006754339e-04
	2.557915896526810e-04
	2.275650624112661e-01

 114	1.140000000000001e+00
	-4.757353761591196e-15
	-5.917874372412687e-18
	-2.832986536256296e-14
	6.271867958395938e-06
	9.314940316977337e-04
	2.650227973070629e-04
	2.275661675737927e-01

 115	1.150000000000001e+00
	-4.767301765028109e-15
	-6.038919300509393e-18
	-2.835604341258917e-14
	6.444376653271077e-06
	9.474384975225884e-04
	2.744142260940672e-04
	2.275672912051701e-01

 116	1.160000000000001e+00
	-4.777450488382396e-15
	-6.162389317620993e-18
	-2.838129228547896e-14
	6.620413287666074e-06
	9.632037527565858e-04
	2.839640662512838e-04
	2.275684330646861e-01

 117	1.170000000000001e+00
	-4.787792320939594e-15
	-6.288336930684788e-18
	-2.840563373924220e-14
	6.800103173610317e-06
	9.787934788728645e-04
	2.936705412656395e-04
	2.275695929210909e-01

 118	1.180000000000001e+00
	-4.798319881232121e-15
	-6.416815961299366e-18
	-2.842908912645814e-14
	6.983581203719545e-06
	9.942120097817455e-04
	3.035319147633915e-04
	2.275707705532183e-01

 119	1.190000000000001e+00
	-4.809026012343880e-15
	-6.547881582840130e-18
	-2.845167939535554e-14
	7.170992424105217e-06
	1.009464258905223e-03
	3.135464966629561e-04
	2.275719657504732e-01

 120	1.200000000000001e+00
	-4.819903777189440e-15
	-6.681590358730548e-18
	-2.847342509132232e-14
	7.362492650966679e-06
	1.024555648253647e-03
	3.237126486082161e-04
	2.275731783132094e-01

 121	1.210000000000001e+00
	-4.830946453776935e-15
	-6.818000281912194e-18
	-2.849434635881564e-14
	7.558249135693806e-06
	1.039492039922633e-03
	3.340287887045259e-04
	2.275744080529772e-01

 122	1.220000000000001e+00
	-4.842147530463369e-15
	-6.957170815553385e-18
	-2.851446294364548e-14
	7.758441283746284e-06
	1.054279670351502e-03
	3.444933955834141e-04
	2.275756547926797e-01

 123	1.230000000000001e+00
	-4.853500701210432e-15
	-7.099162935038430e-18
	-2.853379419560493e-14
	7.963261433064194e-06
	1.068925087612470e-03
	3.551050118250189e-04
	2.275769183666327e-01

 124	1.240000000000001e+00
	-4.864999860848268e-15
	-7.244039171284561e-18
	-2.855235907142213e-14
	8.172915698311179e-06
	1.083435091932718e-03
	3.658622467696776e-04
	2.275781986205320e-01

 125	1.250000000000001e+00
	-4.876639100354107e-15
	-7.391863655429517e-18
	-2.857017613800966e-14
	8.387624887861087e-06
	1.097816679589681e-03
	3.767637787517407e-04
	2.275794954113513e-01

 126	1.260000000000001e+00
	-4.888412702152527e-15
	-7.542702164940148e-18
	-2.858726357598802e-14
	8.607625501124838e-06
	1.112076990263828e-03
	3.878083567898397e-04
	2.275808086071628e-01

 127	1.270000000000001e+00
	-4.900315135443041e-15
	-7.696622171190004e-18
	-2.860363918346110e-14
	8.833170814582566e-06
	1.126223257882626e-03
	3.989948017683901e-04
	2.275821380869116e-01

 128	1.280000000000001e+00
	-4.912341051560709e-15
	-7.853692888558343e-18
	-2.861932038002278e-14
	9.064532065750706e-06
	1.140262764944514e-03
	4.103220071452316e-04
	2.275834837401329e-01

 129	1.290000000000001e+00
	-4.924485279374730e-15
	-8.013985325104030e-18
	-2.863432421097404e-14
	9.301999745286615e-06
	1.154202800272182e-03
	4.217889392200055e-04
	2.275848454666163e-01

 130	1.300000000000001e+00
	-4.936742820729960e-15
	-8.177572334868512e-18
	-2.864866735173156e-14
	9.545885008527064e-06
	1.168050620109846e-03
	4.333946369971171e-04
	2.275862231760558e-01

 131	1.310000000000001e+00
	-4.949108845935134e-15
	-8.344528671868111e-18
	-2.866236611240993e-14
	9.796521218993629e-06
	1.181813412449927e-03
	4.451382116762254e-04
	2.275876167876496e-01

 132	1.320000000000001e+00
	-4.961578689302164e-15
	-8.514931045831610e-18
	-2.867543644255932e-14
	1.005426563778894e-05
	1.195498264449175e-03
	4.570188458018440e-04
	2.275890262296873e-01

 133	1.330000000000001e+00
	-4.974147844739641e-15
	-8.688858179750162e-18
	-2.868789393604302e-14
	1.031950127437965e-05
	1.209112132773267e-03
	4.690357921021452e-04
	2.275904514391172e-01

 134	1.340000000000001e+00
	-4.986811961404096e-15
	-8.866390869298481e-18
	-2.869975383603819e-14
	1.059263891603858e-05
	1.222661816691528e-03
	4.811883720453811e-04
	2.275918923611096e-01

 135	1.350000000000001e+00
	-4.999566839411213e-15
	-9.047612044199081e-18
	-2.871103104014646e-14
	1.087411935522612e-05
	1.236153933729211e-03
	4.934759741404797e-04
	2.275933489485955e-01

 136	1.360000000000001e+00
	-5.012408425610279e-15
	-9.232606831595838e-18
	-2.872174010559871e-14
	1.116441583646077e-05
	1.249594897673180e-03
	5.058980520063433e-04
	2.275948211618161e-01

 137	1.370000000000001e+00
	-5.025332809423385e-15
	-9.421462621510909e-18
	-2.873189525454248e-14
	1.146403674680213e-05
	1.262990898717827e-03
	5.184541222323314e-04
	2.275963089678676e-01

 138	1.380000000000001e+00
	-5.038336218751943e-15
	-9.614269134458467e-18
	-2.874151037939801e-14
	1.177352857698243e-05
	1.276347885530754e-03
	5.311437620502272e-04
	2.275978123402488e-01

 139	1.390000000000001e+00
	-5.051415015951599e-15
	-9.811118491295779e-18
	-2.875059904827250e-14
	1.209347918352838e-05
	1.289671549011990e-03
	5.439666068357656e-04
	2.275993312584093e-01

 140	1.400000000000001e+00
	-5.064565693877450e-15
	-1.001210528538798e-17
	-2.875917451042061e-14
	1.242452138596340e-05
	1.302967307515691e-03
	5.569223474554740e-04
	2.276008657073116e-01

 141	1.410000000000001e+00
	-5.077784872000424e-15
	-1.021732665717677e-17
	-2.876724970174134e-14
	1.276733693744153e-05
	1.316240293299268e-03
	5.700107274722966e-04
	2.276024156769942e-01

 142	1.420000000000001e+00
	-5.091069292596011e-15
	-1.042688237123394e-17
	-2.877483725030126e-14
	1.312266091200437e-05
	1.329495339960977e-03
	5.832315402210870e-04
	2.276039811621460e-01

 143	1.430000000000001e+00
	-5.104415817006035e-15
	-1.064087489589503e-17
	-2.878194948187514e-14
	1.349128655715810e-05
	1.342736970622919e-03
	5.965846257626076e-04
	2.276055621616952e-01

 144	1.440000000000001e+00
	-5.117821421973937e-15
	-1.085940948556562e-17
	-2.878859842549539e-14
	1.387407066673807e-05
	1.355969386612050e-03
	6.100698677223268e-04
	2.276071586783906e-01

 145	1.450000000000001e+00
	-5.131283196053993e-15
	-1.108259426579923e-17
	-2.879479581900248e-14
	1.427193953616287e-05
	1.369196456386012e-03
	6.236871900176741e-04
	2.276087707183984e-01

 146	1.460000000000001e+00
	-5.144798336094988e-15
	-1.131054032124559e-17
	-2.880055311458845e-14
	1.468589557031765e-05
	1.382421704443956e-03
	6.374365534749261e-04
	2.276103982909152e-01

 147	1.470000000000001e+00
	-5.158364143797855e-15
	-1.154336178658081e-17
	-2.880588148432735e-14
	1.511702462358311e-05
	1.395648299954053e-03
	6.513179523343034e-04
	2.276120414077659e-01

 148	1.480000000000001e+00
	-5.171978022347598e-15
	-1.178117594052278e-17
	-2.881079182568550e-14
	1.556650416210504e-05
	1.408879044818510e-03
	6.653314106390259e-04
	2.276137000830101e-01

 149	1.490000000000001e+00
	-5.185637473119275e-15
	-1.202410330305129e-17
	-2.881529476700590e-14
	1.603561235047279e-05
	1.422116360883644e-03
	6.794769785012617e-04
	2.276153743325584e-01

 150	1.500000000000001e+00
	-5.199340092457324e-15
	-1.227226773594894e-17
	-2.881940067296164e-14
	1.652573817875593e-05
	1.435362275986478e-03
	6.937547282349820e-04
	2.276170641737655e-01

 151	1.510000000000001e+00
	-5.213083568528051e-15
	-1.252579654678814e-17
	-2.882311964997256e-14
	1.703839276156667e-05
	1.448618408509096e-03
	7.081647503424381e-04
	2.276187696250226e-01

 152	1.520000000000001e+00
	-5.226865678244951e-15
	-1.278482059648938e-17
	-2.882646155158098e-14
	1.757522195875622e-05
	1.461885950088069e-03
	7.227071493376136e-04
	2.276204907053521e-01

 153	1.530000000000001e+00
	-5.240684284265290e-15
	-1.304947441058895e-17
	-2.882943598378227e-14