Title: ** sch_path: /home/andylithia/openmpw/project-yatsuhashi-chip1/xschem/gmid_test/nmos_test.sch
Date: Tue Jul 19 23:15:45  2022
Plotname: DC transfer characteristic
Flags: real
No. Variables: 8
No. Points: 181
Variables:
	0	v(v-sweep)	voltage
	1	@m.xm1.msky130_fd_pr__nfet_01v8[cgb]	capacitance
	2	@m.xm1.msky130_fd_pr__nfet_01v8[cgd]	capacitance
	3	@m.xm1.msky130_fd_pr__nfet_01v8[cgs]	capacitance
	4	@m.xm1.msky130_fd_pr__nfet_01v8[gds]	admittance
	5	@m.xm1.msky130_fd_pr__nfet_01v8[gm]	admittance
	6	i(@m.xm1.msky130_fd_pr__nfet_01v8[id])	current
	7	v(@m.xm1.msky130_fd_pr__nfet_01v8[vth])	voltage
Values:
 0	0.000000000000000e+00
	-7.391248544962296e-15
	-3.088403487517593e-19
	-1.040905234032176e-14
	5.502472208976052e-09
	2.591452478691640e-07
	2.693983096773523e-08
	2.642284077754457e-01

 1	1.000000000000000e-02
	-7.303864417309228e-15
	-3.175884483623688e-19
	-1.060886083252090e-14
	6.044544265915416e-09
	2.848894407647313e-07
	2.965799507699525e-08
	2.642284080259264e-01

 2	2.000000000000000e-02
	-7.217166549181275e-15
	-3.265606663849145e-19
	-1.080936901396108e-14
	6.637810587660441e-09
	3.131618821752894e-07
	3.264604404766234e-08
	2.642284083013551e-01

 3	3.000000000000000e-02
	-7.131185581196173e-15
	-3.357616993900092e-19
	-1.101047832140640e-14
	7.286795483009342e-09
	3.442125485358370e-07
	3.593048981779748e-08
	2.642284086041962e-01

 4	4.000000000000000e-02
	-7.045951897831337e-15
	-3.451963108836706e-19
	-1.121208927086079e-14
	7.996381204615653e-09
	3.783172726460107e-07
	3.954047107362272e-08
	2.642284089371653e-01

 5	5.000000000000000e-02
	-6.961495552143723e-15
	-3.548693319619749e-19
	-1.141410164232130e-14
	8.771830888124217e-09
	4.157806644046483e-07
	4.350802613509130e-08
	2.642284093032490e-01

 6	6.000000000000000e-02
	-6.877846191819037e-15
	-3.647856620084145e-19
	-1.161641466687275e-14
	9.618812302298981e-09
	4.569393891611894e-07
	4.786839680279354e-08
	2.642284097057395e-01

 7	7.000000000000001e-02
	-6.795032986822885e-15
	-3.749502694364604e-19
	-1.181892721542392e-14
	1.054342235736456e-08
	5.021658463698779e-07
	5.266036695259428e-08
	2.642284101482578e-01

 8	8.000000000000000e-02
	-6.713084558919946e-15
	-3.853681924800020e-19
	-1.202153798837491e-14
	1.155221230673347e-08
	5.518722950704664e-07
	5.792664011040337e-08
	2.642284106348042e-01

 9	9.000000000000000e-02
	-6.632028913317297e-15
	-3.960445400341109e-19
	-1.222414570550144e-14
	1.265221356447217e-08
	6.065154765404556e-07
	6.371426072390391e-08
	2.642284111697910e-01

 10	9.999999999999999e-02
	-6.551893372678790e-15
	-4.069844925487397e-19
	-1.242664929533899e-14
	1.385096404730805e-08
	6.666017881636181e-07
	7.007508437011265e-08
	2.642284117580863e-01

 11	1.100000000000000e-01
	-6.472704513744436e-15
	-4.181933029778124e-19
	-1.262894808335436e-14
	1.515653493580539e-08
	7.326930660100553e-07
	7.706630269563812e-08
	2.642284124050705e-01

 12	1.200000000000000e-01
	-6.394488106775597e-15
	-4.296762977862275e-19
	-1.283094197819986e-14
	1.657755773458823e-08
	8.054130366676262e-07
	8.475102947705407e-08
	2.642284131166946e-01

 13	1.300000000000000e-01
	-6.317269058031777e-15
	-4.414388780172312e-19
	-1.303253165535792e-14
	1.812325149630801e-08
	8.854545013195357e-07
	9.319895480707505e-08
	2.642284138995362e-01

 14	1.400000000000000e-01
	-6.241071355468755e-15
	-4.534865204224936e-19
	-1.323361873749960e-14
	1.980345005850907e-08
	9.735873167116977e-07
	1.024870750510971e-07
	2.642284147608847e-01

 15	1.500000000000000e-01
	-6.165918017830197e-15
	-4.658247786573602e-19
	-1.343410597090298e-14
	2.162862912683750e-08
	1.070667238252027e-06
	1.127005068691545e-07
	2.642284157088137e-01

 16	1.600000000000000e-01
	-6.091831047287321e-15
	-4.784592845435477e-19
	-1.363389739730012e-14
	2.360993302223261e-08
	1.177645689751436e-06
	1.239333942482167e-07
	2.642284167522729e-01

 17	1.700000000000000e-01
	-6.018831385761136e-15
	-4.913957494015052e-19
	-1.383289852055154e-14
	2.575920089406338e-08
	1.295580521948173e-06
	1.362899181245393e-07
	2.642284179011895e-01

 18	1.800000000000000e-01
	-5.946938875043150e-15
	-5.046399654547798e-19
	-1.403101646757773e-14
	2.808899218574248e-08
	1.425647817616300e-06
	1.498854187771949e-07
	2.642284191665844e-01

 19	1.900000000000000e-01
	-5.876172220809337e-15
	-5.181978073084672e-19
	-1.422816014301333e-14
	3.061261112438224e-08
	1.569154794389416e-06
	1.648476417206701e-07
	2.642284205606957e-01

 20	2.000000000000000e-01
	-5.806548960601954e-15
	-5.320752335038007e-19
	-1.442424037708737e-14
	3.334412999168824e-08
	1.727553847056670e-06
	1.813181182911401e-07
	2.642284220971245e-01

 21	2.100000000000000e-01
	-5.738085435833231e-15
	-5.462782881511584e-19
	-1.461917006627335e-14
	3.629841091978149e-08
	1.902457758629977e-06
	1.994536924790629e-07
	2.642284237909819e-01

 22	2.200000000000001e-01
	-5.670796767843920e-15
	-5.608131026431357e-19
	-1.481286430629588e-14
	3.949112594308963e-08
	2.095656093558420e-06
	2.194282057769311e-07
	2.642284256590753e-01

 23	2.300000000000001e-01
	-5.604696838029195e-15
	-5.756858974499695e-19
	-1.500524051712575e-14
	4.293877502619516e-08
	2.309132766721293e-06
	2.414343518494397e-07
	2.642284277200934e-01

 24	2.400000000000001e-01
	-5.539798272024439e-15
	-5.909029839988799e-19
	-1.519621855964019e-14
	4.665870177763465e-08
	2.545084757934736e-06
	2.656857126534796e-07
	2.642284299948262e-01

 25	2.500000000000001e-01
	-5.476112427923119e-15
	-6.064707666394782e-19
	-1.538572084367401e-14
	5.066910655143137e-08
	2.805941913390265e-06
	2.924189871948766e-07
	2.642284325063916e-01

 26	2.600000000000001e-01
	-5.413649388480477e-15
	-6.223957446966431e-19
	-1.557367242723297e-14
	5.498905663176622e-08
	3.094387742506777e-06
	3.218964233619006e-07
	2.642284352805053e-01

 27	2.700000000000001e-01
	-5.352417957237681e-15
	-6.386845146128273e-19
	-1.576000110669108e-14
	5.963849319191221e-08
	3.413381081031008e-06
	3.544084621760388e-07
	2.642284383457583e-01

 28	2.800000000000001e-01
	-5.292425658484122e-15
	-6.553437721814452e-19
	-1.594463749783961e-14
	6.463823471655930e-08
	3.766178448892730e-06
	3.902766023006865e-07
	2.642284417339363e-01

 29	2.900000000000001e-01
	-5.233678740958366e-15
	-6.723803148727793e-19
	-1.612751510770506e-14
	7.000997657721023e-08
	4.156356884505971e-06
	4.298564907028731e-07
	2.642284454803462e-01

 30	3.000000000000001e-01
	-5.176182185173684e-15
	-6.898010442541935e-19
	-1.630857039709764e-14
	7.577628645363891e-08
	4.587836986275805e-06
	4.735412429280925e-07
	2.642284496242038e-01

 31	3.100000000000001e-01
	-5.119939714238611e-15
	-7.076129685060492e-19
	-1.648774283390067e-14
	8.196059530078986e-08
	5.064905837618271e-06
	5.217649934862196e-07
	2.642284542090148e-01

 32	3.200000000000001e-01
	-5.064953808031078e-15
	-7.258232050348183e-19
	-1.666497493715220e-14
	8.858718357007209e-08
	5.592239434646040e-06
	5.750066733248034e-07
	2.642284592830225e-01

 33	3.300000000000001e-01
	-5.011225720572031e-15
	-7.444389831849927e-19
	-1.684021231201518e-14
	9.568116240722608e-08
	6.174924176917473e-06
	6.337940072645315e-07
	2.642284648996582e-01

 34	3.400000000000001e-01
	-4.958755500434513e-15
	-7.634676470509843e-19
	-1.701340367577134e-14
	1.032684495659198e-07
	6.818476922644927e-06
	6.987077195793430e-07
	2.642284711180428e-01

 35	3.500000000000001e-01
	-4.907542014015025e-15
	-7.829166583908207e-19
	-1.718450087501282e-14
	1.113757397972956e-07
	7.528863052172525e-06
	7.703859306273600e-07
	2.642284780035127e-01

 36	3.600000000000002e-01
	-4.857582971486008e-15
	-8.027935996426191e-19
	-1.735345889424176e-14
	1.200304695012059e-07
	8.312511929291539e-06
	8.495287216014238e-07
	2.642284856281705e-01

 37	3.700000000000002e-01
	-4.808874955242608e-15
	-8.231061770455440e-19
	-1.752023585612006e-14
	1.292607754549230e-07
	9.176329101265479e-06
	9.369028381138187e-07
	2.642284940714744e-01

 38	3.800000000000002e-01
	-4.761413450651457e-15
	-8.438622238665738e-19
	-1.768479301364312e-14
	1.390954474701912e-07
	1.012770453772641e-05
	1.033346496526724e-06
	2.642285034208510e-01

 39	3.900000000000002e-01
	-4.715192878905732e-15
	-8.650697037344848e-19
	-1.784709473453878e-14
	1.495638748696474e-07
	1.117451617850070e-05
	1.139774249780356e-06
	2.642285137723199e-01

 40	4.000000000000002e-01
	-4.670206631788956e-15
	-8.867367140824310e-19
	-1.800710847821632e-14
	1.606959867191690e-07
	1.232512804367090e-05
	1.257181862074399e-06
	2.642285252311555e-01

 41	4.100000000000002e-01
	-4.626447108148416e-15
	-9.088714897006246e-19
	-1.816480476561379e-14
	1.725221858038453e-07
	1.358838215857286e-05
	1.386651134273633e-06
	2.642285379125430e-01

 42	4.200000000000002e-01
	-4.583905751879821e-15
	-9.314824064006418e-19
	-1.832015714230883e-14
	1.850732763919221e-07
	1.497358356465862e-05
	1.529354614508930e-06
	2.642285519422568e-01

 43	4.300000000000002e-01
	-4.542573091226178e-15
	-9.545779847927295e-19
	-1.847314213527528e-14
	1.983803858934675e-07
	1.649047772676806e-05
	1.686560121333497e-06
	2.642285674573252e-01

 44	4.400000000000002e-01
	-4.502438779196068e-15
	-9.781668941778408e-19
	-1.862373920367969e-14
	2.124748805883797e-07
	1.814921971051641e-05
	1.859635000194424e-06
	2.642285846066958e-01

 45	4.500000000000002e-01
	-4.463491634910544e-15
	-1.002257956555671e-18
	-1.877193068412222e-14
	2.273882756716139e-07
	1.996033459195111e-05
	2.050050028137717e-06
	2.642286035518747e-01

 46	4.600000000000002e-01
	-4.425719685691973e-15
	-1.026860150750969e-18
	-1.891770173073303e-14
	2.431521399416407e-07
	2.193466867642474e-05
	2.259382876838213e-06
	2.642286244675312e-01

 47	4.700000000000003e-01
	-4.389110209713714e-15
	-1.051982616659052e-18
	-1.906104025053980e-14
	2.597979955407069e-07
	2.408333124508179e-05
	2.489321040501209e-06
	2.642286475420741e-01

 48	4.800000000000003e-01
	-4.353649779035347e-15
	-1.077634659612897e-18
	-1.920193683452397e-14
	2.773572132416602e-07
	2.641762671483167e-05
	2.741664133184022e-06
	2.642286729781598e-01

 49	4.900000000000003e-01
	-4.319324302855351e-15
	-1.103825754873445e-18
	-1.934038468478193e-14
	2.958609038648996e-07
	2.894897728951122e-05
	3.018325459885782e-06
	2.642287009931298e-01

 50	5.000000000000002e-01
	-4.286119070820223e-15
	-1.130565552245255e-18
	-1.947637953820480e-14
	3.153398064992519e-07
	3.168883639332026e-05
	3.321332767582907e-06
	2.642287318193683e-01

 51	5.100000000000002e-01
	-4.254018796236938e-15
	-1.157863880818942e-18
	-1.960991958708502e-14
	3.358241742908404e-07
	3.464859340857157e-05
	3.652828086443669e-06
	2.642287657045622e-01

 52	5.200000000000002e-01
	-4.223007659044047e-15
	-1.185730753843583e-18
	-1.974100539705112e-14
	3.573436586525753e-07
	3.783947048316291e-05
	4.015066577887768e-06
	2.642288029118351e-01

 53	5.300000000000002e-01
	-4.193069348405469e-15
	-1.214176373730040e-18
	-1.986963982272201e-14
	3.799271928317891e-07
	4.127241242267711e-05
	4.410414315059269e-06
	2.642288437197602e-01

 54	5.400000000000003e-01
	-4.164187104799548e-15
	-1.243211137188822e-18
	-1.999582792146285e-14
	4.036028758529327e-07
	4.495797093039976e-05
	4.841344932681311e-06
	2.642288884222273e-01

 55	5.500000000000003e-01
	-4.136343761485492e-15
	-1.272845640503881e-18
	-2.011957686561125e-14
	4.283978579235549e-07
	4.890618469773321e-05
	5.310435097105211e-06
	2.642289373281445e-01

 56	5.600000000000003e-01
	-4.109521785238231e-15
	-1.303090684945446e-18
	-2.024089585352966e-14
	4.543382284529510e-07
	5.312645706889640e-05
	5.820358763521485e-06
	2.642289907609859e-01

 57	5.700000000000003e-01
	-4.083703316251932e-15
	-1.333957282324687e-18
	-2.035979601982520e-14
	4.814489078814892e-07
	5.762743319862188e-05
	6.373880205545522e-06
	2.642290490581410e-01

 58	5.800000000000003e-01
	-4.058870207121775e-15
	-1.365456660692608e-18
	-2.047629034506264e-14
	5.097535445521907e-07
	6.241687878109156e-05
	6.973845822411443e-06
	2.642291125700916e-01

 59	5.900000000000003e-01
	-4.035004060822597e-15
	-1.397600270186558e-18
	-2.059039356527992e-14
	5.392744178728918e-07
	6.750156254450804e-05
	7.623174750417129e-06
	2.642291816593901e-01

 60	6.000000000000003e-01
	-4.012086267611933e-15
	-1.430399789027109e-18
	-2.070212208159906e-14
	5.700323490149485e-07
	7.288714477125235e-05
	8.324848327582759e-06
	2.642292566994548e-01

 61	6.100000000000003e-01
	-3.990098040793845e-15
	-1.463867129669073e-18
	-2.081149387020749e-14
	6.020466203717286e-07
	7.857807411276316e-05
	9.081898483185372e-06
	2.642293380731620e-01

 62	6.200000000000003e-01
	-3.969020451288433e-15
	-1.498014445109351e-18
	-2.091852839296774e-14
	6.353349049556104e-07
	8.457749491693769e-05
	9.897395146318967e-06
	2.642294261712683e-01

 63	6.300000000000003e-01
	-3.948834460960217e-15
	-1.532854135356160e-18
	-2.102324650889514e-14
	6.699132068456986e-07
	9.088716717201181e-05
	1.077443278929503e-05
	2.642295213906595e-01

 64	6.400000000000003e-01
	-3.929520954666372e-15
	-1.568398854062256e-18
	-2.112567038672591e-14
	7.057958137094590e-07
	9.750740099466904e-05
	1.171611624190674e-05
	2.642296241324454e-01

 65	6.500000000000004e-01
	-3.911060770993667e-15
	-1.604661515327502e-18
	-2.122582341877991e-14
	7.429952623112245e-07
	1.044370073542361e-04
	1.272554593072911e-05
	2.642297347998921e-01

 66	6.600000000000004e-01
	-3.893434731660083e-15
	-1.641655300673136e-18
	-2.132373013630442e-14
	7.815223177895116e-07
	1.116732664341464e-04
	1.380580271312610e-05
	2.642298537962823e-01

 67	6.700000000000004e-01
	-3.876623669563894e-15
	-1.679393666193868e-18
	-2.141941612646913e-14
	8.213859673364786e-07
	1.192119146938866e-04
	1.495993248799849e-05
	2.642299815226565e-01

 68	6.800000000000004e-01
	-3.860608455469676e-15
	-1.717890349891337e-18
	-2.151290795116417e-14
	8.625934287480867e-07
	1.270471513185535e-04
	1.619093077407361e-05
	2.642301183754924e-01

 69	6.900000000000004e-01
	-3.845370023326656e-15
	-1.757159379193356e-18
	-2.160423306773759e-14
	9.051501741366336e-07
	1.351716643401930e-04
	1.750172745140606e-05
	2.642302647443820e-01

 70	7.000000000000004e-01
	-3.830889394220517e-15
	-1.797215078665001e-18
	-2.169341975179239e-14
	9.490599689119599e-07
	1.435766762975799e-04
	1.889517186251353e-05
	2.642304210096978e-01

 71	7.100000000000004e-01
	-3.817147698965013e-15
	-1.838072077915711e-18
	-2.178049702214753e-14
	9.943249259475800e-07
	1.522520088821351e-04
	2.037401846612960e-05
	2.642305875402847e-01

 72	7.200000000000004e-01
	-3.804126199344853e-15
	-1.879745319708188e-18
	-2.186549456805276e-14
	1.040945574657847e-06
	1.611861656105314e-04
	2.194091322896620e-05
	2.642307646912618e-01

 73	7.300000000000004e-01
	-3.791806308025279e-15
	-1.922250068274860e-18
	-2.194844267873292e-14
	1.088920944526817e-06
	1.703664311822243e-04
	2.359838092934463e-05
	2.642309528019037e-01

 74	7.400000000000004e-01
	-3.780169607148369e-15
	-1.965601917847639e-18
	-2.202937217532382e-14
	1.138248662452494e-06
	1.797789858343959e-04
	2.534881353135535e-05
	2.642311521936666e-01

 75	7.500000000000004e-01
	-3.769197865639306e-15
	-2.009816801406874e-18
	-2.210831434524893e-14
	1.188925063106305e-06
	1.894090327082068e-04
	2.719445976978548e-05
	2.642313631684050e-01

 76	7.600000000000005e-01
	-3.758873055249397e-15
	-2.054910999657036e-18
	-2.218530087907407e-14
	1.240945311361026e-06
	1.992409359973376e-04
	2.913741606492536e-05
	2.642315860067441e-01

 77	7.700000000000005e-01
	-3.749177365365327e-15
	-2.100901150233904e-18
	-2.226036380986600e-14
	1.294303535713307e-06
	2.092583674687322e-04
	3.117961886309677e-05
	2.642318209667083e-01

 78	7.800000000000005e-01
	-3.740093216617150e-15
	-2.147804257152169e-18
	-2.233353545506956e-14
	1.348992971523600e-06
	2.194444588303004e-04
	3.332283847401458e-05
	2.642320682825758e-01

 79	7.900000000000005e-01
	-3.731603273318697e-15
	-2.195637700499604e-18
	-2.240484836090953e-14
	1.405006112817541e-06
	2.297819573722774e-04
	3.556867445053784e-05
	2.642323281639629e-01

 80	8.000000000000005e-01
	-3.723690454777533e-15
	-2.244419246385712e-18
	-2.247433524931188e-14
	1.462334871340442e-06
	2.402533823268555e-04
	3.791855253065811e-05
	2.642326007952049e-01

 81	8.100000000000005e-01
	-3.716337945511407e-15
	-2.294167057152870e-18
	-2.254202896733295e-14
	1.520970741531476e-06
	2.508411794713050e-04
	4.037372313638174e-05
	2.642328863349619e-01

 82	8.200000000000005e-01
	-3.709529204410859e-15
	-2.344899701857772e-18
	-2.260796243907557e-14
	1.580904970085208e-06
	2.615278716373661e-04
	4.293526140004422e-05
	2.642331849161131e-01

 83	8.300000000000005e-01
	-3.703247972887903e-15
	-2.396636167032169e-18
	-2.267216862006486e-14
	1.642128728795705e-06
	2.722962029773247e-04
	4.560406866613587e-05
	2.642334966458901e-01

 84	8.400000000000005e-01
	-3.697478282051599e-15
	-2.449395867731393e-18
	-2.273468045404935e-14
	1.704633289429735e-06
	2.831292750661744e-04
	4.838087539632887e-05
	2.642338216062718e-01

 85	8.500000000000005e-01
	-3.692204458951906e-15
	-2.503198658880123e-18
	-2.279553083218802e-14
	1.768410199449745e-06
	2.940106731805483e-04
	5.126624538748769e-05
	2.642341598545944e-01

 86	8.600000000000005e-01
	-3.687411131933456e-15
	-2.558064846924886e-18
	-2.285475255457799e-14
	1.833451457500707e-06
	3.049245813787456e-04
	5.426058119725455e-05
	2.642345114243834e-01

 87	8.700000000000006e-01
	-3.683083235141074e-15
	-2.614015201802931e-18
	-2.291237829407277e-14
	1.899749687685588e-06
	3.158558853026223e-04
	5.736413065952731e-05
	2.642348763263822e-01

 88	8.800000000000006e-01
	-3.679206012218510e-15
	-2.671070969238125e-18
	-2.296844056233799e-14
	1.967298311778793e-06
	3.267902619220155e-04
	6.057699436286971e-05
	2.642352545497422e-01

 89	8.900000000000006e-01
	-3.675765019241935e-15
	-2.729253883374534e-18
	-2.302297167808656e-14
	2.036091718662026e-06
	3.377142557370267e-04
	6.389913395857949e-05
	2.642356460633653e-01

 90	9.000000000000006e-01
	-3.672746126929111e-15
	-2.788586179757957e-18
	-2.307600373743340e-14
	2.106125430410164e-06
	3.486153412354176e-04
	6.733038116173228e-05
	2.642360508173747e-01

 91	9.100000000000006e-01
	-3.670135522164454e-15
	-2.849090608677915e-18
	-2.312756858630666e-14
	2.177396264602424e-06
	3.594819716650125e-04
	7.087044730783081e-05
	2.642364687446678e-01

 92	9.200000000000006e-01
	-3.667919708880022e-15
	-2.910790448881311e-18
	-2.317769779485057e-14
	2.249902492583688e-06
	3.703036144191398e-04
	7.451893332950378e-05
	2.642368997625484e-01

 93	9.300000000000006e-01
	-3.666085508331138e-15
	-2.973709521669479e-18
	-2.322642263375306e-14
	2.323643993550025e-06
	3.810707735430195e-04
	7.827534002176394e-05
	2.642373437744156e-01

 94	9.400000000000006e-01
	-3.664620058804631e-15
	-3.037872205392991e-18
	-2.327377405243095e-14
	2.398622404479035e-06
	3.917750000480103e-04
	8.213907847034855e-05
	2.642378006714482e-01

 95	9.500000000000006e-01
	-3.663510814797083e-15
	-3.103303450354742e-18
	-2.331978265900296e-14
	2.474841266067208e-06
	4.024088908673314e-04
	8.610948052528354e-05
	2.642382703343276e-01

 96	9.600000000000006e-01
	-3.662745545698729e-15
	-3.170028794137390e-18
	-2.336447870198253e-14
	2.552306164973086e-06
	4.129660774014292e-04
	9.018580921077715e-05
	2.642387526349105e-01

 97	9.700000000000006e-01
	-3.662312334018289e-15
	-3.238074377367846e-18
	-2.340789205361979e-14
	2.631024872793649e-06
	4.234412046839169e-04
	9.436726897245367e-05
	2.642392474378795e-01

 98	9.800000000000006e-01
	-3.662199573182357e-15
	-3.307466959933033e-18
	-2.345005219482425e-14
	2.711007482323322e-06
	4.338299022520393e-04
	9.865301567354875e-05
	2.642397546023478e-01

 99	9.900000000000007e-01
	-3.662395964942007e-15
	-3.378233937662873e-18
	-2.349098820159846e-14
	2.792266541758770e-06
	4.441287478309645e-04
	1.030421662626833e-04
	2.642402739833837e-01

 100	1.000000000000001e+00
	-3.662890516418133e-15
	-3.450403359495636e-18
	-2.353072873291457e-14
	2.874817187618674e-06
	4.543352249416866e-04
	1.075338080469360e-04
	2.642408054334668e-01

 101	1.010000000000001e+00
	-3.663672536815560e-15
	-3.524003945141137e-18
	-2.356930201996592e-14
	2.958677277246830e-06
	4.644476755211686e-04
	1.121270075149586e-04
	2.642413488038540e-01

 102	1.020000000000001e+00
	-3.664731633834917e-15
	-3.599065103259455e-18
	-2.360673585672715e-14
	3.043867521858856e-06
	4.744652486036704e-04
	1.168208186655672e-04
	2.642419039458557e-01

 103	1.030000000000001e+00
	-3.666057709810127e-15
	-3.675616950171482e-18
	-2.364305759175675e-14
	3.130411621179885e-06
	4.843878460575237e-04
	1.216142908074817e-04
	2.642424707120065e-01

 104	1.040000000000001e+00
	-3.667640957597758e-15
	-3.753690329119747e-18
	-2.367829412117857e-14
	3.218336400802238e-06
	4.942160663049436e-04
	1.265064758054879e-04
	2.642430489571455e-01

 105	1.050000000000001e+00
	-3.669471856243446e-15
	-3.833316830097357e-18
	-2.371247188277870e-14
	3.307671953471690e-06
	5.039511468771791e-04
	1.314964347572214e-04
	2.642436385393742e-01

 106	1.060000000000001e+00
	-3.671541166449568e-15
	-3.914528810264700e-18
	-2.374561685115694e-14
	3.398451785587633e-06
	5.135949065759507e-04
	1.365832440928634e-04
	2.642442393209279e-01

 107	1.070000000000001e+00
	-3.673839925866709e-15
	-3.997359414973421e-18
	-2.377775453387281e-14
	3.490712970280222e-06
	5.231496879275873e-04
	1.417660010973498e-04
	2.642448511689399e-01

 108	1.080000000000001e+00
	-3.676359444230493e-15
	-4.081842599418216e-18
	-2.380890996852858e-14
	3.584496308506463e-06
	5.326183005306283e-04
	1.470438288611204e-04
	2.642454739560906e-01

 109	1.090000000000001e+00
	-3.679091298364397e-15
	-4.168013150937383e-18
	-2.383910772073240e-14
	3.679846499689455e-06
	5.420039658127810e-04
	1.524158806709989e-04
	2.642461075611859e-01

 110	1.100000000000001e+00
	-3.682027327067428e-15
	-4.255906711984779e-18
	-2.386837188288807e-14
	3.776812323513530e-06
	5.513102636309963e-04
	1.578813438575684e-04
	2.642467518696189e-01

 111	1.110000000000001e+00
	-3.685159625905020e-15
	-4.345559803795125e-18
	-2.389672607375822e-14
	3.875446834583120e-06
	5.605410810697913e-04
	1.634394431193170e-04
	2.642474067737539e-01

 112	1.120000000000001e+00
	-3.688480541920122e-15
	-4.437009850766755e-18
	-2.392419343875039e-14
	3.975807571758660e-06
	5.697005637193009e-04
	1.690894433470222e-04
	2.642480721732253e-01

 113	1.130000000000001e+00
	-3.691982668280387e-15
	-4.530295205586442e-18
	-2.395079665087750e-14
	4.077956784099703e-06
	5.787930696462947e-04
	1.748306519742980e-04
	2.642487479751549e-01

 114	1.140000000000001e+00
	-3.695658838876496e-15
	-4.625455175121011e-18
	-2.397655791234562e-14
	4.181961675476918e-06
	5.878231262091283e-04
	1.806624208820487e-04
	2.642494340943099e-01

 115	1.150000000000001e+00
	-3.699502122885442e-15
	-4.722530047102535e-18
	-2.400149895672417e-14
	4.287894670062932e-06
	5.967953898116292e-04
	1.865841478858046e-04
	2.642501304531704e-01

 116	1.160000000000001e+00
	-3.703505819311939e-15
	-4.821561117634010e-18
	-2.402564105165524e-14
	4.395833701079276e-06
	6.057146086410472e-04
	1.925952778355775e-04
	2.642508369819656e-01

 117	1.170000000000001e+00
	-3.707663451519848e-15
	-4.922590719544228e-18
	-2.404900500206151e-14
	4.505862525367604e-06
	6.145855883918710e-04
	1.986953033581464e-04
	2.642515536186334e-01

 118	1.180000000000001e+00
	-3.711968761765029e-15
	-5.025662251620672e-18
	-2.407161115381220e-14
	4.618071066568900e-06
	6.234131609396370e-04
	2.048837652714734e-04
	2.642522803087334e-01

 119	1.190000000000001e+00
	-3.716415705739831e-15
	-5.130820208750402e-18
	-2.409347939781079e-14
	4.732555789939628e-06
	6.322021558971212e-04
	2.111602527004257e-04
	2.642530170053337e-01

 120	1.200000000000001e+00
	-3.720998447138868e-15
	-5.238110213002259e-18
	-2.411462917446778e-14
	4.849420112113192e-06
	6.409573749589272e-04
	2.175244029222030e-04
	2.642537636688381e-01

 121	1.210000000000001e+00
	-3.725711352254745e-15
	-5.347579045679677e-18
	-2.413507947852497e-14
	4.968774849430540e-06
	6.496835689188170e-04
	2.239759009687684e-04
	2.642545202667893e-01

 122	1.220000000000001e+00
	-3.730548984612112e-15
	-5.459274680382534e-18
	-2.415484886419847e-14
	5.090738708823458e-06
	6.583854172271667e-04
	2.305144790123669e-04
	2.642552867736460e-01

 123	1.230000000000001e+00
	-3.735506099646871e-15
	-5.573246317108189e-18
	-2.417395545061049e-14
	5.215438825641526e-06
	6.670675099428240e-04
	2.371399155588122e-04
	2.642560631705331e-01

 124	1.240000000000001e+00
	-3.740577639437863e-15
	-5.689544417432237e-18
	-2.419241692747988e-14
	5.343011353275844e-06
	6.757343319241318e-04
	2.438520344717105e-04
	2.642568494449737e-01

 125	1.250000000000001e+00
	-3.745758727496646e-15
	-5.808220740804664e-18
	-2.421025056104473e-14
	5.473602109957094e-06
	6.843902490973935e-04
	2.506507038492014e-04
	2.642576455906057e-01

 126	1.260000000000001e+00
	-3.751044663620945e-15
	-5.929328382000983e-18
	-2.422747320019079e-14
	5.607367288700688e-06
	6.930394966372929e-04
	2.575358347731827e-04
	2.642584516068752e-01

 127	1.270000000000001e+00
	-3.756430918816920e-15
	-6.052921809769457e-18
	-2.424410128276090e-14
	5.744474237045441e-06
	7.016861688919834e-04
	2.645073799492586e-04
	2.642592674987440e-01

 128	1.280000000000001e+00
	-3.761913130294430e-15
	-6.179056906716282e-18
	-2.426015084202263e-14
	5.885102313999538e-06
	7.103342108859708e-04
	2.715653322540647e-04
	2.642600932763675e-01

 129	1.290000000000001e+00
	-3.767487096539135e-15
	-6.307791010472745e-18
	-2.427563751327265e-14
	6.029443832475348e-06
	7.189874112352713e-04
	2.787097232048793e-04
	2.642609289547854e-01

 130	1.300000000000001e+00
	-3.773148772465192e-15
	-6.439182956190082e-18
	-2.429057654055657e-14
	6.177705096483076e-06
	7.276493963121874e-04
	2.859406213648444e-04
	2.642617745536044e-01

 131	1.310000000000001e+00
	-3.778894264651103e-15
	-6.573293120408499e-18
	-2.430498278348613e-14
	6.330107543475211e-06
	7.363236255004266e-04
	2.932581306954846e-04
	2.642626300966813e-01

 132	1.320000000000001e+00
	-3.784719826661618e-15
	-6.710183466350897e-18
	-2.431887072413493e-14
	6.486889003510007e-06
	7.450133873852508e-04
	3.006623888666368e-04
	2.642634956118133e-01

 133	1.330000000000001e+00
	-3.790621854457858e-15
	-6.849917590689969e-18
	-2.433225447399634e-14
	6.648305088356054e-06
	7.537217967275485e-04
	3.081535655323883e-04
	2.642643711304335e-01

 134	1.340000000000001e+00
	-3.796596881897195e-15
	-6.992560771844560e-18
	-2.434514778098804e-14
	6.814630725315543e-06
	7.624517920748861e-04
	3.157318605801234e-04
	2.642652566873048e-01

 135	1.350000000000001e+00
	-3.802641576324780e-15
	-7.138180019856647e-18
	-2.435756403648818e-14
	6.986161852432229e-06
	7.712061338664993e-04
	3.233975023583154e-04
	2.642661523202300e-01

 136	1.360000000000001e+00
	-3.808752734257672e-15
	-7.286844127909504e-18
	-2.436951628238979e-14
	7.163217293906541e-06
	7.799874028927282e-04
	3.311507458873142e-04
	2.642670580697653e-01

 137	1.370000000000001e+00
	-3.814927277162576e-15
	-7.438623725543838e-18
	-2.438101721816082e-14
	7.346140837004247e-06
	7.887979989722524e-04
	3.389918710559796e-04
	2.642679739789442e-01

 138	1.380000000000001e+00
	-3.821162247327564e-15
	-7.593591333633812e-18
	-2.439207920789818e-14
	7.535303534564511e-06
	7.976401397125725e-04
	3.469211808056747e-04
	2.642689000930063e-01

 139	1.390000000000001e+00
	-3.827454803828495e-15
	-7.751821421188505e-18
	-2.440271428736476e-14
	7.731106260441894e-06
	8.065158592202248e-04
	3.549389993017770e-04
	2.642698364591335e-01

 140	1.400000000000001e+00
	-3.833802218590155e-15
	-7.913390464042268e-18
	-2.441293417099952e-14
	7.933982548918627e-06
	8.154270066270953e-04
	3.630456700915214e-04
	2.642707831262103e-01

 141	1.410000000000001e+00
	-3.840201872541886e-15
	-8.078377005506131e-18
	-2.442275025889150e-14
	8.144401753374907e-06
	8.243752442979096e-04
	3.712415542457139e-04
	2.642717401445671e-01

 142	1.420000000000001e+00
	-3.846651251867590e-15
	-8.246861719049847e-18
	-2.443217364370935e-14
	8.362872564385013e-06
	8.333620455807213e-04
	3.795270284803902e-04
	2.642727075657493e-01

 143	1.430000000000001e+00
	-3.853147944349778e-15
	-8.418927473089215e-18
	-2.444121511757831e-14
	8.589946933025473e-06
	8.423886919576433e-04
	3.879024832531704e-04
	2.642736854422925e-01

 144	1.440000000000001e+00
	-3.859689635806571e-15
	-8.594659397957512e-18
	-2.444988517889832e-14
	8.826224451648140e-06
	8.514562694462984e-04
	3.963683208276043e-04
	2.642746738274755e-01

 145	1.450000000000001e+00
	-3.866274106621754e-15
	-8.774144955139480e-18
	-2.445819403909562e-14
	9.072357251819672e-06
	8.605656640931379e-04
	4.049249532971503e-04
	2.642756727751295e-01

 146	1.460000000000001e+00
	-3.872899228365847e-15
	-8.957474008852616e-18
	-2.446615162930358e-14
	9.329055487730777e-06
	8.697175563886924e-04
	4.135728005590089e-04
	2.642766823393864e-01

 147	1.470000000000001e+00
	-3.879562960508328e-15
	-9.144738900063162e-18
	-2.447376760696588e-14
	9.597093483291693e-06
	8.789124144196412e-04
	4.223122882259908e-04
	2.642777025744784e-01

 148	1.480000000000001e+00
	-3.886263347218885e-15
	-9.336034523026213e-18
	-2.448105136235873e-14
	9.877316632598044e-06
	8.881504855553192e-04
	4.311438454629259e-04
	2.642787335344958e-01

 149	1.490000000000001e+00
	-3.892998514257184e-15
	-9.531458404442827e-18
	-2.448801202502687e-14
	1.017064915668755e-05
	8.974317864441915e-04
	4.400679027317827e-04
	2.642797752731648e-01

 150	1.500000000000001e+00
	-3.899766665949427e-15
	-9.731110785334523e-18
	-2.449465847013021e-14
	1.047810283482073e-05
	9.067560910701294e-04
	4.490848894274316e-04
	2.642808278436131e-01

 151	1.510000000000001e+00
	-3.906566082250360e-15
	-9.935094705734968e-18
	-2.450099932469761e-14
	1.080078684621810e-05
	9.161229165874508e-04
	4.581952313833223e-04
	2.642818912981003e-01

 152	1.520000000000001e+00
	-3.913395115889189e-15
	-1.014351609230294e-17
	-2.450704297378493e-14
	1.113991887864337e-05
	9.255315066169135e-04
	4.673993482232716e-04
	2.642829656877554e-01

 153	1.530000000000001e+00
	-3.920252189598215e-15
	-1.035648384896926e-17
	-2.451279756653481e-14