Title: ** sch_path: /home/andylithia/openmpw/project-yatsuhashi-chip1/xschem/gmid_test/nmos_test.sch
Date: Tue Jul 19 23:15:45  2022
Plotname: DC transfer characteristic
Flags: real
No. Variables: 8
No. Points: 181
Variables:
	0	v(v-sweep)	voltage
	1	@m.xm1.msky130_fd_pr__nfet_01v8[cgb]	capacitance
	2	@m.xm1.msky130_fd_pr__nfet_01v8[cgd]	capacitance
	3	@m.xm1.msky130_fd_pr__nfet_01v8[cgs]	capacitance
	4	@m.xm1.msky130_fd_pr__nfet_01v8[gds]	admittance
	5	@m.xm1.msky130_fd_pr__nfet_01v8[gm]	admittance
	6	i(@m.xm1.msky130_fd_pr__nfet_01v8[id])	current
	7	v(@m.xm1.msky130_fd_pr__nfet_01v8[vth])	voltage
Values:
 0	0.000000000000000e+00
	-9.293899213698506e-15
	-6.201293421541029e-19
	-1.697928672181695e-14
	2.776936558767608e-08
	1.101155463896313e-06
	1.372642947878801e-07
	2.040436471269627e-01

 1	1.000000000000000e-02
	-9.191320305110416e-15
	-6.350185125064382e-19
	-1.722051752065585e-14
	2.999901954896254e-08
	1.192087195618158e-06
	1.487244832593937e-07
	2.040436480383056e-01

 2	2.000000000000000e-02
	-9.090004819137426e-15
	-6.502348046802436e-19
	-1.746152541762280e-14
	3.239867004063020e-08
	1.290547279514268e-06
	1.611311162547608e-07
	2.040436490255841e-01

 3	3.000000000000000e-02
	-8.989975041121220e-15
	-6.657844089085318e-19
	-1.770222306459533e-14
	3.498029167183791e-08
	1.397180076681757e-06
	1.745626518201404e-07
	2.040436500952005e-01

 4	4.000000000000000e-02
	-8.891252622907519e-15
	-6.816736127690681e-19
	-1.794252352454888e-14
	3.775660115398395e-08
	1.512689308192789e-06
	1.891042836642684e-07
	2.040436512541233e-01

 5	5.000000000000000e-02
	-8.793858541963054e-15
	-6.979088028211305e-19
	-1.818234038464048e-14
	4.074109363384678e-08
	1.637844013589730e-06
	2.048485640564151e-07
	2.040436525099414e-01

 6	6.000000000000000e-02
	-8.697813062396322e-15
	-7.144964662951401e-19
	-1.842158786787643e-14
	4.394807996151452e-08
	1.773485124741691e-06
	2.218960893391491e-07
	2.040436538709258e-01

 7	7.000000000000001e-02
	-8.603135697967045e-15
	-7.314431928363549e-19
	-1.866018094307374e-14
	4.739272484646876e-08
	1.920532712242097e-06
	2.403562544923169e-07
	2.040436553460939e-01

 8	8.000000000000000e-02
	-8.509845177162788e-15
	-7.487556763050819e-19
	-1.889803543283040e-14
	5.109108584846379e-08
	2.079993965035539e-06
	2.603480837740258e-07
	2.040436569452835e-01

 9	9.000000000000000e-02
	-8.417959410413275e-15
	-7.664407166345273e-19
	-1.913506811922876e-14
	5.506015314289450e-08
	2.252971967340674e-06
	2.820011450882964e-07
	2.040436586792411e-01

 10	9.999999999999999e-02
	-8.327495459505994e-15
	-7.845052217487664e-19
	-1.937119684700584e-14
	5.931788999321179e-08
	2.440675340106198e-06
	3.054565563857951e-07
	2.040436605597002e-01

 11	1.100000000000000e-01
	-8.238469509258349e-15
	-8.029562095421839e-19
	-1.960634062393413e-14
	6.388327385556107e-08
	2.644428817105746e-06
	3.308680930908906e-07
	2.040436625994932e-01

 12	1.200000000000000e-01
	-8.150896841493978e-15
	-8.218008099224497e-19
	-1.984041971816866e-14
	6.877633803332036e-08
	2.865684828244007e-06
	3.584034062621520e-07
	2.040436648126605e-01

 13	1.300000000000000e-01
	-8.064791811362072e-15
	-8.410462669191155e-19
	-2.007335575232938e-14
	7.401821379144793e-08
	3.106036164588135e-06
	3.882453619291423e-07
	2.040436672145665e-01

 14	1.400000000000000e-01
	-7.980167826030898e-15
	-8.606999408591623e-19
	-2.030507179409968e-14
	7.963117283266920e-08
	3.367229800925729e-06
	4.205935128004921e-07
	2.040436698220410e-01

 15	1.500000000000000e-01
	-7.897037325777788e-15
	-8.807693106121950e-19
	-2.053549244313809e-14
	8.563867002942583e-08
	3.651181952134198e-06
	4.556657142993292e-07
	2.040436726535303e-01

 16	1.600000000000000e-01
	-7.815411767489614e-15
	-9.012619759064839e-19
	-2.076454391411449e-14
	9.206538629725596e-08
	3.959994439163266e-06
	4.936998976433330e-07
	2.040436757292584e-01

 17	1.700000000000000e-01
	-7.735301610579417e-15
	-9.221856597182107e-19
	-2.099215411569797e-14
	9.893727148678682e-08
	4.295972438803792e-06
	5.349560134373709e-07
	2.040436790714173e-01

 18	1.800000000000000e-01
	-7.656716305316434e-15
	-9.435482107360358e-19
	-2.121825272534035e-14
	1.062815871629343e-07
	4.661643688451979e-06
	5.797181599748287e-07
	2.040436827043601e-01

 19	1.900000000000000e-01
	-7.579664283558831e-15
	-9.653576059024237e-19
	-2.144277125971509e-14
	1.141269491309688e-07
	5.059779212565161e-06
	6.282969111340960e-07
	2.040436866548401e-01

 20	2.000000000000000e-01
	-7.504152951869920e-15
	-9.876219530343535e-19
	-2.166564314069043e-14
	1.225033695601634e-07
	5.493415631234659e-06
	6.810318593940938e-07
	2.040436909522392e-01

 21	2.100000000000000e-01
	-7.430188686991419e-15
	-1.010349493525057e-18
	-2.188680375673080e-14
	1.314422985463987e-07
	5.965879103029700e-06
	7.382943900566699e-07
	2.040436956288461e-01

 22	2.200000000000001e-01
	-7.357776833639430e-15
	-1.033548605128962e-18
	-2.210619051963956e-14
	1.409766649456304e-07
	6.480810943767061e-06
	8.004907032345486e-07
	2.040437007201652e-01

 23	2.300000000000001e-01
	-7.286921704581239e-15
	-1.057227804832131e-18
	-2.232374291657434e-14
	1.511409163004790e-07
	7.042194949886652e-06
	8.680651005172257e-07
	2.040437062652252e-01

 24	2.400000000000001e-01
	-7.217626582944983e-15
	-1.081395751809825e-18
	-2.253940255728138e-14
	1.619710576721780e-07
	7.654386439414863e-06
	9.415035534369405e-07
	2.040437123069552e-01

 25	2.500000000000001e-01
	-7.149893726706485e-15
	-1.106061250473845e-18
	-2.275311321651607e-14
	1.735046891800004e-07
	8.322143004846613e-06
	1.021337570895906e-06
	2.040437188925712e-01

 26	2.600000000000001e-01
	-7.083724375292215e-15
	-1.131233253611546e-18
	-2.296482087163159e-14
	1.857810420399515e-07
	9.050656950435219e-06
	1.108148382552115e-06
	2.040437260740056e-01

 27	2.700000000000001e-01
	-7.019118758231221e-15
	-1.156920865618721e-18
	-2.317447373533528e-14
	1.988410128838040e-07
	9.845589361137604e-06
	1.202571454761667e-06
	2.040437339083922e-01

 28	2.800000000000001e-01
	-6.956076105783312e-15
	-1.183133345828684e-18
	-2.338202228362987e-14
	2.127271961289763e-07
	1.071310572164213e-05
	1.305301355006768e-06
	2.040437424585698e-01

 29	2.900000000000001e-01
	-6.894594661466081e-15
	-1.209880111940010e-18
	-2.358741927897137e-14
	2.274839141587354e-07
	1.165991297134492e-05
	1.417096979761721e-06
	2.040437517936424e-01

 30	3.000000000000001e-01
	-6.834671696398868e-15
	-1.237170743544462e-18
	-2.379061978869129e-14
	2.431572450612673e-07
	1.269329784474459e-05
	1.538787159428188e-06
	2.040437619895995e-01

 31	3.100000000000001e-01
	-6.776303525377807e-15
	-1.265014985758734e-18
	-2.399158119874657e-14
	2.597950476652423e-07
	1.382116630644652e-05
	1.671276652266665e-06
	2.040437731299755e-01

 32	3.200000000000001e-01
	-6.719485524592022e-15
	-1.293422752961093e-18
	-2.419026322287399e-14
	2.774469835985524e-07
	1.505208384582158e-05
	1.815552537123717e-06
	2.040437853065645e-01

 33	3.300000000000001e-01
	-6.664212150889312e-15
	-1.322404132636323e-18
	-2.438662790723899e-14
	2.961645360862039e-07
	1.639531634846843e-05
	1.972691012167092e-06
	2.040437986202072e-01

 34	3.400000000000001e-01
	-6.610476962495318e-15
	-1.351969389330941e-18
	-2.458063963068312e-14
	3.160010251930270e-07
	1.786087121018271e-05
	2.143864603756440e-06
	2.040438131816153e-01

 35	3.500000000000001e-01
	-6.558272641090122e-15
	-1.382128968721375e-18
	-2.477226510068329e-14
	3.370116192069167e-07
	1.945953830445156e-05
	2.330349785960822e-06
	2.040438291122965e-01

 36	3.600000000000002e-01
	-6.507591015142678e-15
	-1.412893501797912e-18
	-2.496147334515127e-14
	3.592533418493092e-07
	2.120293035703289e-05
	2.533535007058406e-06
	2.040438465454951e-01

 37	3.700000000000002e-01
	-6.458423084404196e-15
	-1.444273809166529e-18
	-2.514823570020621e-14
	3.827850749911102e-07
	2.310352222148569e-05
	2.754929114587740e-06
	2.040438656272657e-01

 38	3.800000000000002e-01
	-6.410759045459378e-15
	-1.476280905472146e-18
	-2.533252579406867e-14
	4.076675565455585e-07
	2.517468848839220e-05
	2.996170165154248e-06
	2.040438865175476e-01

 39	3.900000000000002e-01
	-6.364588318235575e-15
	-1.508926003945178e-18
	-2.551431952722656e-14
	4.339633732036464e-07
	2.743073879927157e-05
	3.259034599208295e-06
	2.040439093913720e-01

 40	4.000000000000002e-01
	-6.319899573369041e-15
	-1.542220521075023e-18
	-2.569359504903589e-14
	4.617369476742697e-07
	2.988695017498294e-05
	3.545446754413881e-06
	2.040439344401003e-01

 41	4.100000000000002e-01
	-6.276680760329054e-15
	-1.576176081412907e-18
	-2.587033273092166e-14
	4.910545200895823e-07
	3.255959560893118e-05
	3.857488684020457e-06
	2.040439618727552e-01

 42	4.200000000000002e-01
	-6.234919136200969e-15
	-1.610804522507459e-18
	-2.604451513635256e-14
	5.219841232373078e-07
	3.546596811909132e-05
	4.197410238866118e-06
	2.040439919174142e-01

 43	4.300000000000002e-01
	-6.194601295031203e-15
	-1.646117899975700e-18
	-2.621612698776547e-14
	5.545955512859662e-07
	3.862439940133596e-05
	4.567639363314729e-06
	2.040440248226698e-01

 44	4.400000000000002e-01
	-6.155713197638808e-15
	-1.682128492713151e-18
	-2.638515513062042e-14
	5.889603216766929e-07
	4.205427218154103e-05
	4.970792546618726e-06
	2.040440608591600e-01

 45	4.500000000000002e-01
	-6.118240201800046e-15
	-1.718848808245740e-18
	-2.655158849476957e-14
	6.251516298674072e-07
	4.577602532738428e-05
	5.409685361980887e-06
	2.040441003211556e-01

 46	4.600000000000002e-01
	-6.082167092715418e-15
	-1.756291588227371e-18
	-2.671541805332445e-14
	6.632442966315518e-07
	4.981115075463903e-05
	5.887343016053141e-06
	2.040441435281969e-01

 47	4.700000000000003e-01
	-6.047478113670562e-15
	-1.794469814086307e-18
	-2.687663677920787e-14
	7.033147076354276e-07
	5.418218114923047e-05
	6.407010821876547e-06
	2.040441908267810e-01

 48	4.800000000000003e-01
	-6.014156996805868e-15
	-1.833396712824186e-18
	-2.703523959957653e-14
	7.454407450456944e-07
	5.891266752751538e-05
	6.972164498469136e-06
	2.040442425920714e-01

 49	4.900000000000003e-01
	-5.982186993912677e-15
	-1.873085762970948e-18
	-2.719122334829933e-14
	7.897017109524678e-07
	6.402714567531044e-05
	7.586520190565740e-06
	2.040442992296418e-01

 50	5.000000000000002e-01
	-5.951550907176912e-15
	-1.913550700699763e-18
	-2.734458671667626e-14
	8.361782424341893e-07
	6.955109054321642e-05
	8.254044092586334e-06
	2.040443611772284e-01

 51	5.100000000000002e-01
	-5.922231119795039e-15
	-1.954805526106110e-18
	-2.749533020257962e-14
	8.849522181385062e-07
	7.551085773370508e-05
	8.978961551956560e-06
	2.040444289064426e-01

 52	5.200000000000002e-01
	-5.894209626390569e-15
	-1.996864509654145e-18
	-2.764345605819676e-14
	9.361066563090898e-07
	8.193361129594552e-05
	9.765765518639071e-06
	2.040445029245026e-01

 53	5.300000000000002e-01
	-5.867468063162880e-15
	-2.039742198795682e-18
	-2.778896823655135e-14
	9.897256042524700e-07
	8.884723714895325e-05
	1.061922420040374e-05
	2.040445837758655e-01

 54	5.400000000000003e-01
	-5.841987737704562e-15
	-2.083453424764817e-18
	-2.793187233697491e-14
	1.045894019310966e-06
	9.628024158326303e-05
	1.154438777719569e-05
	2.040446720438108e-01

 55	5.500000000000003e-01
	-5.817749658426729e-15
	-2.128013309554024e-18
	-2.807217554969683e-14
	1.104697641488457e-06
	1.042616344466319e-04
	1.254659402322516e-05
	2.040447683519206e-01

 56	5.600000000000003e-01
	-5.794734563536261e-15
	-2.173437273074868e-18
	-2.820988659971664e-14
	1.166222857964827e-06
	1.128207968002120e-04
	1.363147268235000e-05
	2.040448733654158e-01

 57	5.700000000000003e-01
	-5.772922949512382e-15
	-2.219741040509162e-18
	-2.834501569011616e-14
	1.230556559831754e-06
	1.219873330375104e-04
	1.480494844120216e-05
	2.040449877923395e-01

 58	5.800000000000003e-01
	-5.752295099034574e-15
	-2.266940649854822e-18
	-2.847757444496440e-14
	1.297785991487131e-06
	1.317909076879641e-04
	1.607324234557465e-05
	2.040451123845491e-01

 59	5.900000000000003e-01
	-5.732831108317070e-15
	-2.315052459671755e-18
	-2.860757585196194e-14
	1.367998593236909e-06
	1.422610673778979e-04
	1.744287150905813e-05
	2.040452479384668e-01

 60	6.000000000000003e-01
	-5.714510913809894e-15
	-2.364093157032934e-18
	-2.873503420496532e-14
	1.441281837770335e-06
	1.534270486909740e-04
	1.892064696898964e-05
	2.040453952955856e-01

 61	6.100000000000003e-01
	-5.697314318229362e-15
	-2.414079765685905e-18
	-2.885996504652602e-14
	1.517723061296686e-06
	1.653175729542410e-04
	2.051366955363190e-05
	2.040455553426722e-01

 62	6.200000000000003e-01
	-5.681221015885679e-15
	-2.465029654430259e-18
	-2.898238511057115e-14
	1.597409290256569e-06
	1.779606292697287e-04
	2.222932363624420e-05
	2.040457290116306e-01

 63	6.300000000000003e-01
	-5.666210617278398e-15
	-2.516960545717579e-18
	-2.910231226534776e-14
	1.680427064647373e-06
	1.913832474098308e-04
	2.407526866642151e-05
	2.040459172790179e-01

 64	6.400000000000003e-01
	-5.652262672934232e-15
	-2.569890524478461e-18
	-2.921976545674437e-14
	1.766862259128475e-06
	2.056112624911701e-04
	2.605942838677559e-05
	2.040461211651556e-01

 65	6.500000000000004e-01
	-5.639356696465437e-15
	-2.623838047183825e-18
	-2.933476465209752e-14
	1.856799903194369e-06
	2.206690736293845e-04
	2.818997766365262e-05
	2.040463417328242e-01

 66	6.600000000000004e-01
	-5.627472186830218e-15
	-2.678821951146752e-18
	-2.944733078458413e-14
	1.950324001821925e-06
	2.365793990490123e-04
	3.047532688401486e-05
	2.040465800855130e-01

 67	6.700000000000004e-01
	-5.616588649779806e-15
	-2.734861464070503e-18
	-2.955748569829346e-14
	2.047517358107276e-06
	2.533630303706022e-04
	3.292410389664417e-05
	2.040468373652013e-01

 68	6.800000000000004e-01
	-5.606685618480472e-15
	-2.791976213850703e-18
	-2.966525209406526e-14
	2.148461399506937e-06
	2.710385890136769e-04
	3.554513350419056e-05
	2.040471147496629e-01

 69	6.900000000000004e-01
	-5.597742673301175e-15
	-2.850186238637787e-18
	-2.977065347617522e-14
	2.253236009383337e-06
	2.896222878314615e-04
	3.834741454292174e-05
	2.040474134492925e-01

 70	7.000000000000004e-01
	-5.589739460760630e-15
	-2.909511997167199e-18
	-2.987371409994124e-14
	2.361919365624609e-06
	3.091277012242131e-04
	4.134009461891781e-05
	2.040477347034248e-01

 71	7.100000000000004e-01
	-5.582655711630900e-15
	-2.969974379364826e-18
	-2.997445892031726e-14
	2.474587788159087e-06
	3.295655470557400e-04
	4.453244260236943e-05
	2.040480797762045e-01

 72	7.200000000000004e-01
	-5.576471258196116e-15
	-3.031594717234593e-18
	-3.007291354153664e-14
	2.591315597215316e-06
	3.509434837168627e-04
	4.793381901506348e-05
	2.040484499519744e-01

 73	7.300000000000004e-01
	-5.571166050668290e-15
	-3.094394796037548e-18
	-3.016910416785935e-14
	2.712174984185195e-06
	3.732659256353291e-04
	5.155364447941377e-05
	2.040488465302292e-01

 74	7.400000000000004e-01
	-5.566720172764318e-15
	-3.158396865768770e-18
	-3.026305755547174e-14
	2.837235896930049e-06
	3.965338804211673e-04
	5.540136642990342e-05
	2.040492708201673e-01

 75	7.500000000000004e-01
	-5.563113856450077e-15
	-3.223623652941382e-18
	-3.035480096558244e-14
	2.966565941326374e-06
	4.207448106581347e-04
	5.948642431886397e-05
	2.040497241348876e-01

 76	7.600000000000005e-01
	-5.560327495859747e-15
	-3.290098372686738e-18
	-3.044436211875218e-14
	3.100230300777623e-06
	4.458925231060368e-04
	6.381821357743939e-05
	2.040502077852601e-01

 77	7.700000000000005e-01
	-5.558341660400611e-15
	-3.357844741178017e-18
	-3.053176915048897e-14
	3.238291675322095e-06
	4.719670877675781e-04
	6.840604861871358e-05
	2.040507230735538e-01

 78	7.800000000000005e-01
	-5.557137107054996e-15
	-3.426886988387976e-18
	-3.061705056813684e-14
	3.380810241844677e-06
	4.989547889011688e-04
	7.325912519268536e-05
	2.040512712868864e-01

 79	7.900000000000005e-01
	-5.556694791892314e-15
	-3.497249871189212e-18
	-3.070023520908013e-14
	3.527843636752697e-06
	5.268381096337747e-04
	7.838648242146246e-05
	2.040518536905346e-01

 80	8.000000000000005e-01
	-5.556995880806596e-15
	-3.568958686807200e-18
	-3.078135220028090e-14
	3.679446962306453e-06
	5.555957513533762e-04
	8.379696485721204e-05
	2.040524715212303e-01

 81	8.100000000000005e-01
	-5.558021759495003e-15
	-3.642039286635851e-18
	-3.086043091916324e-14
	3.835672817604323e-06
	5.852026885483233e-04
	8.949918491462085e-05
	2.040531259804794e-01

 82	8.200000000000005e-01
	-5.559754042694784e-15
	-3.716518090425891e-18
	-3.093750095585362e-14
	3.996571355015009e-06
	6.156302592217516e-04
	9.550148603356422e-05
	2.040538182280140e-01

 83	8.300000000000005e-01
	-5.562174582697122e-15
	-3.792422100856773e-18
	-3.101259207678245e-14
	4.162190362628100e-06
	6.468462904550921e-04
	1.018119069261380e-04
	2.040545493754526e-01

 84	8.400000000000005e-01
	-5.565265477156329e-15
	-3.869778918503932e-18
	-3.108573418964929e-14
	4.332575373063656e-06
	6.788152581383654e-04
	1.084381472551132e-04
	2.040553204802271e-01

 85	8.500000000000005e-01
	-5.569009076215383e-15
	-3.948616757211603e-18
	-3.115695730974868e-14
	4.507769798745146e-06
	7.114984793390686e-04
	1.153875350782202e-04
	2.040561325398990e-01

 86	8.600000000000005e-01
	-5.573387988967298e-15
	-4.028964459884185e-18
	-3.122629152765335e-14
	4.687815093504384e-06
	7.448543352593381e-04
	1.226669963747168e-04
	2.040569864868867e-01

 87	8.700000000000006e-01
	-5.578385089274266e-15
	-4.110851514708869e-18
	-3.129376697824542e-14
	4.872750940154111e-06
	7.788385222444854e-04
	1.302830269476289e-04
	2.040578831837097e-01

 88	8.800000000000006e-01
	-5.583983520965814e-15
	-4.194308071820561e-18
	-3.135941381108593e-14
	5.062615463440898e-06
	8.134043278668825e-04
	1.382416669673972e-04
	2.040588234187965e-01

 89	8.900000000000006e-01
	-5.590166702437804e-15
	-4.279364960425639e-18
	-3.142326216210874e-14
	5.257445467580919e-06
	8.485029287273541e-04
	1.465484783908867e-04
	2.040598079028772e-01

 90	9.000000000000006e-01
	-5.596918330674754e-15
	-4.366053706395194e-18
	-3.148534212662362e-14
	5.457276697388084e-06
	8.840837063001639e-04
	1.552085254544217e-04
	2.040608372660669e-01

 91	9.100000000000006e-01
	-5.604222384717259e-15
	-4.454406550344946e-18
	-3.154568373361064e-14
	5.662144121833384e-06
	9.200945769043907e-04
	1.642263584014792e-04
	2.040619120555810e-01

 92	9.200000000000006e-01
	-5.612063128597538e-15
	-4.544456466216217e-18
	-3.160431692128558e-14
	5.872082238726666e-06
	9.564823317178758e-04
	1.736060005655184e-04
	2.040630327341926e-01

 93	9.300000000000006e-01
	-5.620425113764652e-15
	-4.636237180373130e-18
	-3.166127151391541e-14
	6.087125399093637e-06
	9.931929826632255e-04
	1.833509388871043e-04
	2.040641996793601e-01

 94	9.400000000000006e-01
	-5.629293181022359e-15
	-4.729783191233589e-18
	-3.171657719985987e-14
	6.307308149729573e-06
	1.030172109987840e-03
	1.934641179026074e-04
	2.040654131830725e-01

 95	9.500000000000006e-01
	-5.638652462001070e-15
	-4.825129789450326e-18
	-3.177026351081485e-14
	6.532665592352609e-06
	1.067365207430474e-03
	2.039479372002825e-04
	2.040666734523783e-01

 96	9.600000000000006e-01
	-5.648488380186099e-15
	-4.922313078661429e-18
	-3.182235980223114e-14
	6.763233757751402e-06
	1.104718021011021e-03
	2.148042522991290e-04
	2.040679806105630e-01

 97	9.700000000000006e-01
	-5.658786651523808e-15
	-5.021369996826197e-18
	-3.187289523488117e-14
	6.999049993324708e-06
	1.142176877692183e-03
	2.260343788672711e-04
	2.040693346989698e-01

 98	9.800000000000006e-01
	-5.669533284626428e-15
	-5.122338338169575e-18
	-3.192189875754582e-14
	7.240153362445571e-06
	1.179689000434605e-03
	2.376391001604731e-04
	2.040707356793826e-01

 99	9.900000000000007e-01
	-5.680714580597466e-15
	-5.225256775750878e-18
	-3.196939909079110e-14
	7.486585054145674e-06
	1.217202806491674e-03
	2.496186775281734e-04
	2.040721834369867e-01

 100	1.000000000000001e+00
	-5.692317132496565e-15
	-5.330164884681739e-18
	-3.201542471180618e-14
	7.738388801708605e-06
	1.254668186157825e-03
	2.619728638048083e-04
	2.040736777837456e-01

 101	1.010000000000001e+00
	-5.704327824465613e-15
	-5.437103166012249e-18
	-3.206000384027046e-14
	7.995611308876238e-06
	1.292036759583467e-03
	2.747009193782379e-04
	2.040752184622572e-01

 102	1.020000000000001e+00
	-5.716733830534522e-15
	-5.546113071308432e-18
	-3.210316442521958e-14
	8.258302682514725e-06
	1.329262109691901e-03
	2.878016307054629e-04
	2.040768051499486e-01

 103	1.030000000000001e+00
	-5.729522613126048e-15
	-5.657237027945167e-18
	-3.214493413287867e-14
	8.526516870747416e-06
	1.366299989667062e-03
	3.012733310283540e-04
	2.040784374635554e-01

 104	1.040000000000001e+00
	-5.742681921278465e-15
	-5.770518465137476e-18
	-3.218534033543050e-14
	8.800312105739604e-06
	1.403108503916289e-03
	3.151139230290077e-04
	2.040801149638454e-01

 105	1.050000000000001e+00
	-5.756199788603972e-15
	-5.886001840735464e-18
	-3.222441010068722e-14
	9.079751350514348e-06
	1.439648261840687e-03
	3.293209031556414e-04
	2.040818371605158e-01

 106	1.060000000000001e+00
	-5.770064531000499e-15
	-6.003732668809197e-18
	-3.226217018263265e-14
	9.364902749382799e-06
	1.475882504157971e-03
	3.438913873453818e-04
	2.040836035171806e-01

 107	1.070000000000001e+00
	-5.784264744133758e-15
	-6.123757548049034e-18
	-3.229864701280416e-14
	9.655840081785506e-06
	1.511777201911841e-03
	3.588221378697485e-04
	2.040854134564331e-01

 108	1.080000000000001e+00
	-5.798789300706048e-15
	-6.246124191010580e-18
	-3.233386669248133e-14
	9.952643219562117e-06
	1.547301128662287e-03
	3.741095910319316e-04
	2.040872663648691e-01

 109	1.090000000000001e+00
	-5.813627347527843e-15
	-6.370881454230970e-18
	-3.236785498564955e-14
	1.025539858788814e-05
	1.582425906676400e-03
	3.897498854515101e-04
	2.040891615980817e-01

 110	1.100000000000001e+00
	-5.828768302407310e-15
	-6.498079369246263e-18
	-3.240063731270810e-14
	1.056419963034414e-05
	1.617126028227438e-03
	4.057388906820675e-04
	2.040910984855386e-01

 111	1.110000000000001e+00
	-5.844201850872792e-15
	-6.627769174541788e-18
	-3.243223874488965e-14
	1.087914727880624e-05
	1.651378853356821e-03
	4.220722359194967e-04
	2.040930763353267e-01

 112	1.120000000000001e+00
	-5.859917942742067e-15
	-6.760003348464984e-18
	-3.246268399936271e-14
	1.120035042907061e-05
	1.685164585659319e-03
	4.387453385734586e-04
	2.040950944387058e-01

 113	1.130000000000001e+00
	-5.875906788552626e-15
	-6.894835643133262e-18
	-3.249199743498416e-14
	1.152792642334466e-05
	1.718466227815030e-03
	4.557534324909237e-04
	2.040971520744645e-01

 114	1.140000000000001e+00
	-5.892158855865555e-15
	-7.032321119371717e-18
	-3.252020304867442e-14
	1.186200154095520e-05
	1.751269518714038e-03
	4.730915956386564e-04
	2.040992485130376e-01

 115	1.150000000000001e+00
	-5.908664865455952e-15
	-7.172516182714237e-18
	-3.254732447238419e-14
	1.220271149883759e-05
	1.783562854102291e-03
	4.907547770704111e-04
	2.041013830203734e-01

 116	1.160000000000001e+00
	-5.925415787401650e-15
	-7.315478620504158e-18
	-3.257338497062530e-14
	1.255020196358028e-05
	1.815337192722646e-03
	5.087378230241730e-04
	2.041035548615232e-01

 117	1.170000000000001e+00
	-5.942402837082112e-15
	-7.461267640129689e-18
	-3.259840743853667e-14
	1.290462907700598e-05
	1.846585949935936e-03
	5.270355020145791e-04
	2.041057633039786e-01

 118	1.180000000000001e+00
	-5.959617471097995e-15
	-7.609943908436799e-18
	-3.262241440045891e-14
	1.326615999747768e-05
	1.877304880787444e-03
	5.456425288055158e-04
	2.041080076206900e-01

 119	1.190000000000001e+00
	-5.977051383122281e-15
	-7.761569592353196e-18
	-3.264542800899045e-14
	1.363497345931920e-05
	1.907491954436194e-03
	5.645535871671852e-04
	2.041102870928426e-01

 120	1.200000000000001e+00
	-5.994696499692482e-15
	-7.916208400769858e-18
	-3.266747004449923e-14
	1.401126035294779e-05
	1.937147221794452e-03
	5.837633513409343e-04
	2.041126010123064e-01

 121	1.210000000000001e+00
	-6.012544975953734e-15
	-8.073925627718710e-18
	-3.268856191506507e-14
	1.439522432851991e-05
	1.966272678133471e-03
	6.032665061530185e-04
	2.041149486838419e-01

 122	1.220000000000001e+00
	-6.030589191361615e-15
	-8.234788196892064e-18
	-3.270872465682786e-14
	1.478708242610336e-05
	1.994872122305512e-03
	6.230577657355814e-04
	2.041173294270189e-01

 123	1.230000000000001e+00
	-6.048821745352930e-15
	-8.398864707549144e-18
	-3.272797893471859e-14
	1.518706573560543e-05
	2.022951014113110e-03
	6.431318908290325e-04
	2.041197425778809e-01

 124	1.240000000000001e+00
	-6.067235452992803e-15
	-8.566225481856338e-18
	-3.274634504354951e-14
	1.559542008991018e-05
	2.050516331228879e-03
	6.634837046546050e-04
	2.041221874903593e-01

 125	1.250000000000001e+00
	-6.085823340605214e-15
	-8.736942613710905e-18
	-3.276384290944219e-14
	1.601240679491560e-05
	2.077576426935864e-03
	6.841081073593282e-04
	2.041246635374389e-01

 126	1.260000000000001e+00
	-6.104578641394715e-15
	-8.911090019098268e-18
	-3.278049209157103e-14
	1.643830340040743e-05
	2.104140889821908e-03
	7.050000890474967e-04
	2.041271701121289e-01

 127	1.270000000000001e+00
	-6.123494791065234e-15
	-9.088743488033798e-18
	-3.279631178420310e-14
	1.687340451597612e-05
	2.130220406425566e-03
	7.261547414235442e-04
	2.041297066282030e-01

 128	1.280000000000001e+00
	-6.142565423442635e-15
	-9.269980738148772e-18
	-3.281132081901331e-14
	1.731802267646478e-05
	2.155826627696180e-03
	7.475672680803405e-04
	2.041322725207498e-01

 129	1.290000000000001e+00
	-6.161784366107055e-15
	-9.454881469968396e-18
	-3.282553766765636e-14
	1.777248926174617e-05
	2.180972040000121e-03
	7.692329934749570e-04
	2.041348672465619e-01

 130	1.300000000000001e+00
	-6.181145636039887e-15
	-9.643527423950403e-18
	-3.283898044457757e-14
	1.823715547596111e-05
	2.205669841280278e-03
	7.911473706406439e-04
	2.041374902843451e-01

 131	1.310000000000001e+00
	-6.200643435291143e-15
	-9.836002439336700e-18
	-3.285166691004410e-14
	1.871239339171393e-05
	2.229933822856814e-03
	8.133059876891127e-04
	2.041401411347899e-01

 132	1.320000000000001e+00
	-6.220272146671323e-15
	-1.003239251488776e-17
	-3.286361447338117e-14
	1.919859706512160e-05
	2.253778257246539e-03
	8.357045731616509e-04
	2.041428193205126e-01

 133	1.330000000000001e+00
	-6.240026329472751e-15
	-1.023278587155787e-17
	-3.287484019639587e-14
	1.969618372804783e-05
	2.277217792275249e-03
	8.583390002906990e-04
	2.041455243858784e-01

 134	1.340000000000001e+00
	-6.259900715223942e-15
	-1.043727301718824e-17
	-3.288536079697382e-14
	2.020559506433637e-05
	2.300267351663388e-03
	8.812052902358707e-04
	2.041482558967235e-01

 135	1.350000000000001e+00
	-6.279890203480619e-15
	-1.064594681328081e-17
	-3.289519265283446e-14
	2.072729857738622e-05
	2.322942042180360e-03
	9.042996143597570e-04
	2.041510134399692e-01

 136	1.360000000000001e+00
	-6.299989857657734e-15
	-1.085890254393006e-17
	-3.290435180542986e-14
	2.126178905698989e-05
	2.345257067385824e-03
	9.276182956092184e-04
	2.041537966231982e-01

 137	1.370000000000001e+00
	-6.320194900903976e-15
	-1.107623798698914e-17
	-3.291285396397497e-14
	2.180959015400673e-05
	2.367227647910095e-03
	9.511578090680748e-04
	2.041566050741082e-01

 138	1.380000000000001e+00
	-6.340500712023467e-15
	-1.129805348754508e-17
	-3.292071450959529e-14
	2.237125607214060e-05
	2.388868948165216e-03
	9.749147817458463e-04
	2.041594384399648e-01

 139	1.390000000000001e+00
	-6.360902821445511e-15
	-1.152445203379238e-17
	-3.292794849958135e-14
	2.294737338688341e-05
	2.410196009328847e-03
	9.988859916662653e-04
	2.041622963869645e-01

 140	1.400000000000001e+00
	-6.381396907246014e-15
	-1.175553933538270e-17
	-3.293457067173705e-14
	2.353856300254127e-05
	2.431223688398945e-03
	1.023068366317167e-03
	2.041651785995903e-01

 141	1.410000000000001e+00
	-6.401978791221771e-15
	-1.199142390434436e-17
	-3.294059544881225e-14
	2.414548225921856e-05
	2.451966603081925e-03
	1.047458980521357e-03
	2.041680847799182e-01

 142	1.420000000000001e+00
	-6.422644435019886e-15
	-1.223221713866075e-17
	-3.294603694300819e-14
	2.476882720268405e-05
	2.472439082247173e-03
	1.072055053785393e-03
	2.041710146469104e-01

 143	1.430000000000001e+00
	-6.443389936324029e-15
	-1.247803340860580e-17
	-3.295090896054669e-14
	2.540933503120845e-05
	2.492655121657764e-03
	1.096853947180491e-03
	2.041739679356930e-01

 144	1.440000000000001e+00
	-6.464211525098475e-15
	-1.272899014593110e-17
	-3.295522500629364e-14
	2.606778673474639e-05
	2.512628344669243e-03
	1.121853159806753e-03
	2.041769443968221e-01

 145	1.450000000000001e+00
	-6.485105559891589e-15
	-1.298520793601444e-17
	-3.295899828842803e-14
	2.674500994325643e-05
	2.532371967575373e-03
	1.147050324888764e-03
	2.041799437955402e-01

 146	1.460000000000001e+00
	-6.506068524199791e-15
	-1.324681061306957e-17
	-3.296224172314792e-14
	2.744188200251983e-05
	2.551898769270831e-03
	1.172443205547302e-03
	2.041829659110461e-01

 147	1.470000000000001e+00
	-6.527097022892368e-15
	-1.351392535853443e-17
	-3.296496793940640e-14
	2.815933329755773e-05
	2.571221064896178e-03
	1.198029690288710e-03
	2.041860105357465e-01

 148	1.480000000000001e+00
	-6.548187778698489e-15
	-1.378668280274936e-17
	-3.296718928366921e-14
	2.889835084565817e-05
	2.590350683127929e-03
	1.223807788249908e-03
	2.041890774745304e-01

 149	1.490000000000001e+00
	-6.569337628756451e-15
	-1.406521713004680e-17
	-3.296891782468788e-14
	2.965998218315108e-05
	2.609298946777858e-03
	1.249775624233887e-03
	2.041921665440442e-01

 150	1.500000000000001e+00
	-6.590543521226007e-15
	-1.434966618737965e-17
	-3.297016535828126e-14
	3.044533957240983e-05
	2.628076656368144e-03
	1.275931433566953e-03
	2.041952775719829e-01

 151	1.510000000000001e+00
	-6.611802511963502e-15
	-1.464017159661244e-17
	-3.297094341212013e-14
	3.125560455815928e-05
	2.646694076353947e-03
	1.302273556805954e-03
	2.041984103963866e-01

 152	1.520000000000001e+00
	-6.633111761260373e-15
	-1.493687887061438e-17
	-3.297126325050846e-14
	3.209203290503418e-05
	2.665160923670471e-03
	1.328800434320169e-03
	2.042015648649488e-01

 153	1.530000000000001e+00
	-6.654468530644863e-15
	-1.523993753329611e-17
	-3.297113587915647e-14