Title: ** sch_path: /home/andylithia/openmpw/project-yatsuhashi-chip1/xschem/gmid_test/nmos_test.sch
Date: Sun Jul 17 22:51:45  2022
Plotname: DC transfer characteristic
Flags: real
No. Variables: 8
No. Points: 181
Variables:
	0	v(v-sweep)	voltage
	1	@m.xm1.msky130_fd_pr__nfet_01v8[cgb]	capacitance
	2	@m.xm1.msky130_fd_pr__nfet_01v8[cgd]	capacitance
	3	@m.xm1.msky130_fd_pr__nfet_01v8[cgs]	capacitance
	4	@m.xm1.msky130_fd_pr__nfet_01v8[gds]	admittance
	5	@m.xm1.msky130_fd_pr__nfet_01v8[gm]	admittance
	6	i(@m.xm1.msky130_fd_pr__nfet_01v8[id])	current
	7	v(@m.xm1.msky130_fd_pr__nfet_01v8[vth])	voltage
Values:
 0	0.000000000000000e+00
	-3.794694761647889e-16
	5.973904547932365e-20
	-4.851738104607455e-18
	1.252627107833179e-13
	2.734362662269141e-12
	1.053789825972561e-13
	7.693912890705957e-01

 1	1.000000000000000e-02
	-3.775976595646922e-16
	6.310289685427298e-20
	-5.149743340089327e-18
	1.614777571415624e-13
	3.544377331926651e-12
	1.365977504833440e-13
	7.693912890705970e-01

 2	2.000000000000000e-02
	-3.757475048977868e-16
	6.667082891141981e-20
	-5.470627180772203e-18
	2.081558399966590e-13
	4.594322099211199e-12
	1.770645068860051e-13
	7.693912890705997e-01

 3	3.000000000000000e-02
	-3.739180920846414e-16
	7.045760470962334e-20
	-5.816395636761839e-18
	2.683175662600334e-13
	5.955253648663136e-12
	2.295184960951851e-13
	7.693912890706025e-01

 4	4.000000000000000e-02
	-3.721084884791350e-16
	7.447892209164382e-20
	-6.189232988657125e-18
	3.458548102172676e-13
	7.719266961751557e-12
	2.975101804429172e-13
	7.693912890706058e-01

 5	5.000000000000000e-02
	-3.703177463104933e-16
	7.875142365360894e-20
	-6.591514686233926e-18
	4.457817642765089e-13
	1.000572165407412e-11
	3.856414120015112e-13
	7.693912890706114e-01

 6	6.000000000000000e-02
	-3.685449000807727e-16
	8.329270145248143e-20
	-7.025820908336651e-18
	5.745582372829196e-13
	1.296930976291815e-11
	4.998766780701739e-13
	7.693912890706175e-01

 7	7.000000000000001e-02
	-3.667889639137721e-16
	8.812129605575706e-20
	-7.494950814409345e-18
	7.405059582768377e-13
	1.681050900413988e-11
	6.479464380016690e-13
	7.693912890706258e-01

 8	8.000000000000000e-02
	-3.650489288513611e-16
	9.325668951408558e-20
	-8.001937518396658e-18
	9.543445946768769e-13
	2.178912595395658e-11
	8.398697768103320e-13
	7.693912890706368e-01

 9	9.000000000000000e-02
	-3.633237600934911e-16
	9.871929179867656e-20
	-8.550063814586901e-18
	1.229881846018853e-12
	2.824184122952878e-11
	1.088631639151047e-12
	7.693912890706506e-01

 10	9.999999999999999e-02
	-3.616123941788491e-16
	1.045304201868648e-19
	-9.142878681769015e-18
	1.584901811494680e-12
	3.660493735154914e-11
	1.411060313467134e-12
	7.693912890706683e-01

 11	1.100000000000000e-01
	-3.599137361043819e-16
	1.107122709965319e-19
	-9.784214586116842e-18
	2.042308472517857e-12
	4.744373739677237e-11
	1.828964305687318e-12
	7.693912890706917e-01

 12	1.200000000000000e-01
	-3.582266563838368e-16
	1.172878829588270e-19
	-1.047820559366068e-17
	2.631597376347429e-12
	6.149073177615547e-11
	2.370605173047224e-12
	7.693912890707226e-01

 13	1.300000000000000e-01
	-3.565499880483084e-16
	1.242810913747469e-19
	-1.122930628911430e-17
	3.390749473234488e-12
	7.969495113082104e-11
	3.072605441295388e-12
	7.693912890707616e-01

 14	1.400000000000000e-01
	-3.548825235956212e-16
	1.317164720216587e-19
	-1.204231147820481e-17
	4.368667853495644e-12
	1.032858935744435e-10
	3.982419899752681e-12
	7.693912890708124e-01

 15	1.500000000000000e-01
	-3.532230119004954e-16
	1.396192735589242e-19
	-1.292237662437030e-17
	5.628312523306239e-12
	1.338562834093679e-10
	5.161536289375879e-12
	7.693912890708784e-01

 16	1.600000000000000e-01
	-3.515701551039325e-16
	1.480153369275344e-19
	-1.387503893665311e-17
	7.250732485157765e-12
	1.734691890827848e-10
	6.689620158026208e-12
	7.693912890709641e-01

 17	1.700000000000000e-01
	-3.499226055083427e-16
	1.569309999492872e-19
	-1.490623898268938e-17
	9.340250979501655e-12
	2.247966414909287e-10
	8.669881659916988e-12
	7.693912890710753e-01

 18	1.800000000000000e-01
	-3.482789625147496e-16
	1.663929850115076e-19
	-1.602234264777804e-17
	1.203113227994618e-11
	2.912989735562267e-10
	1.123602344725045e-11
	7.693912890712189e-01

 19	1.900000000000000e-01
	-3.466377696500569e-16
	1.764282673814883e-19
	-1.723016319711570e-17
	1.549615135310466e-11
	3.774567810862300e-10
	1.456123384308833e-11
	7.693912890714051e-01

 20	2.000000000000000e-01
	-3.449975117459450e-16
	1.870639213421729e-19
	-1.853698312255858e-17
	1.995760664311335e-11
	4.890708528668696e-10
	1.886982500131467e-11
	7.693912890716463e-01

 21	2.100000000000000e-01
	-3.433566123464922e-16
	1.983269409920654e-19
	-1.995057536705033e-17
	2.570146839744798e-11
	6.336498508924786e-10
	2.445229047871105e-11
	7.693912890719589e-01

 22	2.200000000000001e-01
	-3.417134314390583e-16
	2.102440322270683e-19
	-2.147922341883668e-17
	3.309554941829759e-11
	8.209112143319298e-10
	3.168478173399465e-11
	7.693912890723642e-01

 23	2.300000000000001e-01
	-3.400662636221846e-16
	2.228413721432616e-19
	-2.313173965383110e-17
	4.261283342882142e-11
	1.063428061523222e-09
	4.105429280075756e-11
	7.693912890728891e-01

 24	2.400000000000001e-01
	-3.384133368450256e-16
	2.361443318953157e-19
	-2.491748117860807e-17
	5.486141294181818e-11
	1.377464212819314e-09
	5.319121494854731e-11
	7.693912890735686e-01

 25	2.500000000000001e-01
	-3.367528118747594e-16
	2.501771589477106e-19
	-2.684636228982512e-17
	7.062289194742216e-11
	1.784051406859033e-09
	6.891140169064546e-11
	7.693912890744490e-01

 26	2.600000000000001e-01
	-3.350827826709933e-16
	2.649626147020687e-19
	-2.892886252058041e-17
	9.090162192234680e-11
	2.310378026686808e-09
	8.927049836594441e-11
	7.693912890755896e-01

 27	2.700000000000001e-01
	-3.334012778686529e-16
	2.805215637148711e-19
	-3.117602909359332e-17
	1.169877914190493e-10
	2.991578052859641e-09
	1.156340768151608e-10
	7.693912890770662e-01

 28	2.800000000000001e-01
	-3.317062635922851e-16
	2.968725111801233e-19
	-3.359947244972051e-17
	1.505382157238991e-10
	3.873033585457407e-09
	1.497681211082422e-10
	7.693912890789780e-01

 29	2.900000000000001e-01
	-3.299956478438843e-16
	3.140310860882686e-19
	-3.621135337430894e-17
	1.936797183011784e-10
	5.013335435304868e-09
	1.939556934287748e-10
	7.693912890814530e-01

 30	3.000000000000001e-01
	-3.282672867218342e-16
	3.320094685327884e-19
	-3.902436011098947e-17
	2.491413148622897e-10
	6.488085568270292e-09
	2.511472431260530e-10
	7.693912890846564e-01

 31	3.100000000000001e-01
	-3.265189927385256e-16
	3.508157610647402e-19
	-4.205167374242453e-17
	3.204230711473205e-10
	8.394774506603844e-09
	3.251540971335225e-10
	7.693912890888015e-01

 32	3.200000000000001e-01
	-3.247485455067202e-16
	3.704533058312544e-19
	-4.530692004169367e-17
	4.120115885505332e-10
	1.085902840953096e-08
	4.208972977959350e-10
	7.693912890941639e-01

 33	3.300000000000001e-01
	-3.229537050574687e-16
	3.909199515048746e-19
	-4.880410596977326e-17
	5.296546758098372e-10
	1.404259709732512e-08
	5.447272704526804e-10
	7.693912891010997e-01

 34	3.400000000000001e-01
	-3.211322280329910e-16
	4.122072767273405e-19
	-5.255753902867967e-17
	6.807110068977618e-10
	1.815354872157681e-08
	7.048339717249623e-10
	7.693912891100673e-01

 35	3.500000000000001e-01
	-3.192818869639557e-16
	4.342997799417456e-19
	-5.658172779210800e-17
	8.745945817478114e-10
	2.345925237068522e-08
	9.117723853815581e-10
	7.693912891216580e-01

 36	3.600000000000002e-01
	-3.174004927897300e-16
	4.571740490281541e-19
	-6.089126214175594e-17
	1.123338754643309e-09
	3.030287001454934e-08
	1.179134724279455e-09
	7.693912891366328e-01

 37	3.700000000000002e-01
	-3.154859207104752e-16
	4.807979280092317e-19
	-6.550067205303783e-17
	1.442310651018126e-09
	3.912424707518175e-08
	1.524408725944239e-09
	7.693912891559717e-01

 38	3.800000000000002e-01
	-3.135361393700123e-16
	5.051297021307064e-19
	-7.042426421140345e-17
	1.851114147607208e-09
	5.048628921155656e-08
	1.970071287537020e-09
	7.693912891809335e-01

 39	3.900000000000002e-01
	-3.115492432577247e-16
	5.301173266744027e-19
	-7.567593630881399e-17
	2.374728439403522e-09
	6.510814299969584e-08
	2.544978685729491e-09
	7.693912892131339e-01

 40	4.000000000000002e-01
	-3.095234880870221e-16
	5.556977287088393e-19
	-8.126896957224676e-17
	3.044939745620638e-09
	8.390675914987657e-08
	3.286129084106093e-09
	7.693912892546455e-01

 41	4.100000000000002e-01
	-3.074573287592344e-16
	5.817962143566854e-19
	-8.721580090783354e-17
	3.902136066304704e-09
	1.080487040817741e-07
	4.240890234391180e-09
	7.693912893081217e-01

 42	4.200000000000002e-01
	-3.053494593590350e-16
	6.083260167553433e-19
	-9.352777699137598e-17
	4.997549168050407e-09
	1.390143887652270e-07
	5.469805444336727e-09
	7.693912893769537e-01

 43	4.300000000000002e-01
	-3.031988544563312e-16
	6.351880213779655e-19
	-1.002148936736136e-16
	6.396044098526076e-09
	1.786771842717652e-07
	7.050114089259909e-09
	7.693912894654663e-01

 44	4.400000000000002e-01
	-3.010048108175787e-16
	6.622707054363347e-19
	-1.072855251599933e-16
	8.179574244641931e-09
	2.294001618401298e-07
	9.080149023009674e-09
	7.693912895791685e-01

 45	4.500000000000002e-01
	-2.987669884660203e-16
	6.894503263964829e-19
	-1.147461485213279e-16
	1.045143868497734e-08
	2.941533872287243e-07
	1.168480166830050e-08
	7.693912897250550e-01

 46	4.600000000000002e-01
	-2.964854498861640e-16
	7.165913909506588e-19
	-1.226010701342330e-16
	1.334149732176860e-08
	3.766547525176927e-07
	1.502227527726427e-08
	7.693912899119872e-01

 47	4.700000000000003e-01
	-2.941606960545517e-16
	7.435474299411238e-19
	-1.308521615709535e-16
	1.701251637333539e-08
	4.815371604910091e-07
	1.929237606857161e-08
	7.693912901511558e-01

 48	4.800000000000003e-01
	-2.917936979082429e-16
	7.701620966806737e-19
	-1.394986131844194e-16
	2.166782981468358e-08
	6.145443830463309e-07
	2.474661794938875e-08
	7.693912904566479e-01

 49	4.900000000000003e-01
	-2.893859218454277e-16
	7.962705959695322e-19
	-1.485367140936069e-16
	2.756050780167185e-08
	7.827569730928662e-07
	3.170043546155121e-08
	7.693912908461314e-01

 50	5.000000000000002e-01
	-2.869393478982479e-16
	8.217014391458934e-19
	-1.579596673997286e-16
	3.500421631594738e-08
	9.948480869807959e-07
	4.054780630985037e-08
	7.693912913416727e-01

 51	5.100000000000002e-01
	-2.844564793324910e-16
	8.462785071814366e-19
	-1.677574492009546e-16
	4.438592718837531e-08
	1.261366847633746e-06
	5.177857289466005e-08
	7.693912919707084e-01

 52	5.200000000000002e-01
	-2.819403426146547e-16
	8.698233897626162e-19
	-1.779167192863452e-16
	5.618058691882416e-08
	1.595043859788698e-06
	6.599871415368148e-08
	7.693912927671788e-01

 53	5.300000000000002e-01
	-2.793944769417182e-16
	8.921579542421829e-19
	-1.884207902667455e-16
	7.096776783568495e-08
	2.011109667503559e-06
	8.395374666227517e-08
	7.693912937728408e-01

 54	5.400000000000003e-01
	-2.768229128455375e-16
	9.131070851529655e-19
	-1.992496603582670e-16
	8.945019718637440e-08
	2.527612436420758e-06
	1.065553197760537e-07
	7.693912950387558e-01

 55	5.500000000000003e-01
	-2.742301397497712e-16
	9.325015235313652e-19
	-2.103801131197792e-16
	1.124738804611005e-07
	3.165716243585067e-06
	1.349109080620882e-07
	7.693912966269533e-01

 56	5.600000000000003e-01
	-2.716210627558182e-16
	9.501807264434776e-19
	-2.217858852366963e-16
	1.410492988612976e-07
	3.949956577753612e-06
	1.703562938047030e-07
	7.693912986122521e-01

 57	5.700000000000003e-01
	-2.690009493449225e-16
	9.659956615716337e-19
	-2.334379010428351e-16
	1.763728665835577e-07
	4.908425726832726e-06
	2.144902776826652e-07
	7.693913010842000e-01

 58	5.800000000000003e-01
	-2.663753670836792e-16
	9.798114500465545e-19
	-2.453045700041081e-16
	2.198474888995371e-07
	6.072858555428364e-06
	2.692107697346678e-07
	7.693913041490993e-01

 59	5.900000000000003e-01
	-2.637501137864656e-16
	9.915097731989824e-19
	-2.573521409880157e-16
	2.731006857904888e-07
	7.478589678999578e-06
	3.367511176712483e-07
	7.693913079320415e-01

 60	6.000000000000003e-01
	-2.611311418988059e-16
	1.000990965573210e-18
	-2.695451049483581e-16
	3.379983714691800e-07
	9.164356943003594e-06
	4.197152561180846e-07
	7.693913125788738e-01

 61	6.100000000000003e-01
	-2.585244791016123e-16
	1.008175727114721e-18
	-2.818466357931688e-16
	4.166520565535356e-07
	1.117193364501248e-05
	5.211100441558979e-07
	7.693913182580123e-01

 62	6.200000000000003e-01
	-2.559361472833758e-16
	1.013006401358700e-18
	-2.942190577836743e-16
	5.114170301697133e-07
	1.354558255783284e-05
	6.443730338797674e-07
	7.693913251619966e-01

 63	6.300000000000003e-01
	-2.533720820774546e-16
	1.015447782909539e-18
	-3.066243269127931e-16
	6.248790555401775e-07
	1.633133707420524e-05
	7.933939040642626e-07
	7.693913335086908e-01

 64	6.400000000000003e-01
	-2.508380551127648e-16
	1.015487435545784e-18
	-3.190245133781670e-16
	7.598273443607050e-07
	1.957612645490927e-05
	9.725279061279092e-07
	7.693913435420372e-01

 65	6.500000000000004e-01
	-2.483396009831481e-16
	1.013135520848496e-18
	-3.313822725042607e-16
	9.192121157133163e-07
	2.332677064077538e-05
	1.186599885523874e-06
	7.693913555322816e-01

 66	6.600000000000004e-01
	-2.458819507142059e-16
	1.008424155267722e-18
	-3.436612922503801e-16
	1.106085914916609e-06
	2.762887323987809e-05
	1.440897717152940e-06
	7.693913697756061e-01

 67	6.700000000000004e-01
	-2.434699732121047e-16
	1.001406330024124e-18
	-3.558267067027170e-16
	1.323529040350358e-06
	3.252563831714655e-05
	1.741154269619509e-06
	7.693913865931189e-01

 68	6.800000000000004e-01
	-2.411081258359666e-16
	9.921544423569324e-19
	-3.678454665976913e-16
	1.574560821624134e-06
	3.805662873225837e-05
	2.093517233097426e-06
	7.693914063291653e-01

 69	6.900000000000004e-01
	-2.388004148649764e-16
	9.807584977486840e-19
	-3.796866598511143e-16
	1.862039979186663e-06
	4.425647442062696e-05
	2.504506275722403e-06
	7.693914293489285e-01

 70	7.000000000000004e-01
	-2.365503662544578e-16
	9.673240504956559e-19
	-3.913217771540866e-16
	2.188558705679398e-06
	5.115353315419714e-05
	2.980957043111374e-06
	7.693914560352918e-01

 71	7.100000000000004e-01
	-2.343610067116486e-16
	9.519699542143517e-19
	-4.027249198231737e-16
	2.556336261935412e-06
	5.876850902680723e-05
	3.529951545767132e-06
	7.693914867849423e-01

 72	7.200000000000004e-01
	-2.322348547888263e-16
	9.348259946752879e-19
	-4.138729491493991e-16
	2.967118608644763e-06
	6.711304853257167e-05
	4.158734594361492e-06
	7.693915220036867e-01

 73	7.300000000000004e-01
	-2.301739214022257e-16
	9.160304750380211e-19
	-4.247455783833449e-16
	3.422090771188247e-06
	7.618836062661488e-05
	4.874616265559652e-06
	7.693915621009917e-01

 74	7.400000000000004e-01
	-2.281797189491837e-16
	8.957278185801429e-19
	-4.353254101483132e-16
	3.921808191721221e-06
	8.598394136874765e-05
	5.684861012582841e-06
	7.693916074837699e-01

 75	7.500000000000004e-01
	-2.262532780181502e-16
	8.740662469305547e-19
	-4.455979234388983e-16
	4.466152260959052e-06
	9.647651768636569e-05
	6.596565014730442e-06
	7.693916585495107e-01

 76	7.600000000000005e-01
	-2.243951705677361e-16
	8.511955832419052e-19
	-4.555514154105988e-16
	5.054313617105489e-06
	1.076293484498088e-04
	7.616524636477119e-06
	7.693917156789102e-01

 77	7.700000000000005e-01
	-2.226055383893274e-16
	8.272652202813177e-19
	-4.651769038910621e-16
	5.684804794784176e-06
	1.193920250168297e-04
	8.751100287926158e-06
	7.693917792282464e-01

 78	7.800000000000005e-01
	-2.208841256578089e-16
	8.024222836501350e-19
	-4.744679969577261e-16
	6.355501603508775e-06
	1.317008916513907e-04
	1.000608131339647e-05
	7.693918495218079e-01

 79	7.900000000000005e-01
	-2.192303144094426e-16
	7.768100107631786e-19
	-4.834207360571657e-16
	7.063710449932198e-06
	1.444801582577227e-04
	1.138655851895543e-05
	7.693919268447562e-01

 80	8.000000000000005e-01
	-2.176431618565089e-16
	7.505663572285825e-19
	-4.920334190263637e-16
	7.806256933231213e-06
	1.576437094550894e-04
	1.289681134445557e-05
	7.693920114368028e-01

 81	8.100000000000005e-01
	-2.161214385462051e-16
	7.238228341798399e-19
	-5.003064090592779e-16
	8.579589649978742e-06
	1.710975361835289e-04
	1.454021633827224e-05
	7.693921034870816e-01

 82	8.200000000000005e-01
	-2.146636664878180e-16
	6.967035731235975e-19
	-5.082419351900985e-16
	9.379892388749487e-06
	1.847426425680914e-04
	1.631918247739098e-05
	7.693922031305274e-01

 83	8.300000000000005e-01
	-2.132681564993794e-16
	6.693246090921660e-19
	-5.158438892832118e-16
	1.020319782862693e-05
	1.984782249115959e-04
	1.823511710362429e-05
	7.693923104459655e-01

 84	8.400000000000005e-01
	-2.119330441558786e-16
	6.417933683577967e-19
	-5.231176238714294e-16
	1.104549643347979e-05
	2.122048909691643e-04
	2.028842404651068e-05
	7.693924254560099e-01

 85	8.500000000000005e-01
	-2.106563238498277e-16
	6.142083436379164e-19
	-5.300697545061133e-16
	1.190283532285262e-05
	2.258276898804980e-04
	2.247853317052801e-05
	7.693925481287156e-01

 86	8.600000000000005e-01
	-2.094358805969658e-16
	5.866589375098560e-19
	-5.367079696067434e-16
	1.277140331194925e-05
	2.392587539383940e-04
	2.480395842106170e-05
	7.693926783808303e-01

 87	8.700000000000006e-01
	-2.082695193318496e-16
	5.592254535363601e-19
	-5.430408501482880e-16
	1.364759984130168e-05
	2.524194053939848e-04
	2.726237970239602e-05
	7.693928160823840e-01

 88	8.800000000000006e-01
	-2.071549915377734e-16
	5.319792142355472e-19
	-5.490777009211796e-16
	1.452808697422307e-05
	2.652416445890242e-04
	2.985074276445079e-05
	7.693929610622817e-01

 89	8.900000000000006e-01
	-2.060900191417122e-16
	5.049827853605508e-19
	-5.548283945534365e-16
	1.540982488557625e-05
	2.776689994186249e-04
	3.256537076066719e-05
	7.693931131145542e-01

 90	9.000000000000006e-01
	-2.050723156774276e-16
	4.782902868324408e-19
	-5.603032290052223e-16
	1.629009221531992e-05
	2.896567718091901e-04
	3.540208122809106e-05
	7.693932720049101e-01

 91	9.100000000000006e-01
	-2.040996047787691e-16
	4.519477719551725e-19
	-5.655127988359492e-16
	1.716649328810558e-05
	3.011717589150663e-04
	3.835630282097055e-05
	7.693934374772764e-01

 92	9.200000000000006e-01
	-2.031696361113738e-16
	4.259936581051002e-19
	-5.704678802026876e-16
	1.803695452515491e-05
	3.121915527868818e-04
	4.142318705022835e-05
	7.693936092600554e-01

 93	9.300000000000006e-01
	-2.022801988854907e-16
	4.004591938190191e-19
	-5.751793292730490e-16
	1.889971244616530e-05
	3.227035329091337e-04
	4.459771138404094e-05
	7.693937870719019e-01

 94	9.400000000000006e-01
	-2.014291331168748e-16
	3.753689490119287e-19
	-5.796579935210002e-16
	1.975329554079916e-05
	3.327036637997405e-04
	4.787477120698661e-05
	7.693939706268742e-01

 95	9.500000000000006e-01
	-2.006143388180256e-16
	3.507413168633408e-19
	-5.839146352141448e-16
	2.059650204643469e-05
	3.421951983711886e-04
	5.124925920569004e-05
	7.693941596388801e-01

 96	9.600000000000006e-01
	-1.998337833098800e-16
	3.265890176627946e-19
	-5.879598662890983e-16
	2.142837535889454e-05
	3.511873706890047e-04
	5.471613167352002e-05
	7.693943538253920e-01

 97	9.700000000000006e-01
	-1.990855068458280e-16
	3.029195965578396e-19
	-5.918040937407492e-16
	2.224817847143686e-05
	3.596941424092722e-04
	5.827046196695531e-05
	7.693945529104386e-01

 98	9.800000000000006e-01
	-1.983676267367970e-16
	2.797359086742440e-19
	-5.954574746147290e-16
	2.305536851685377e-05
	3.677330480614717e-04
	6.190748189218110e-05
	7.693947566269267e-01

 99	9.900000000000007e-01
	-1.976783401593513e-16
	2.570365864590599e-19
	-5.989298796838069e-16
	2.384957219844766e-05
	3.753241671588849e-04
	6.562261216388571e-05
	7.693949647183452e-01

 100	1.000000000000001e+00
	-1.970159258192227e-16
	2.348164853265003e-19
	-6.022308649024909e-16
	2.463056264845772e-05
	3.824892367965212e-04
	6.941148328363582e-05
	7.693951769399342e-01

 101	1.010000000000001e+00
	-1.963787446312949e-16
	2.130671047610607e-19
	-6.053696497646055e-16
	2.539823805042904e-05
	3.892509072602784e-04
	7.326994826330590e-05
	7.693953930593993e-01

 102	1.020000000000001e+00
	-1.957652395645218e-16
	1.917769829573759e-19
	-6.083551017315089e-16
	2.615260220345185e-05
	3.956321351198831e-04
	7.719408860145351e-05
	7.693956128572447e-01

 103	1.030000000000001e+00
	-1.951739347871344e-16
	1.709320638597411e-19
	-6.111957259502009e-16
	2.689374708670796e-05
	4.016557029532894e-04
	8.118021483647243e-05
	7.693958361268037e-01

 104	1.040000000000001e+00
	-1.946034342342358e-16
	1.505160361162325e-19
	-6.138996595375248e-16
	2.762183739656655e-05
	4.073438517695292e-04
	8.522486287472241e-05
	7.693960626740360e-01

 105	1.050000000000001e+00
	-1.940524197068756e-16
	1.305106439950276e-19
	-6.164746697665529e-16
	2.833709696948146e-05
	4.127180108514545e-04
	8.932478714452504e-05
	7.693962923171399e-01

 106	1.060000000000001e+00
	-1.935196485991589e-16
	1.108959707375454e-19
	-6.189281555518889e-16
	2.903979696638264e-05
	4.177986096543355e-04
	9.347695147281588e-05
	7.693965248860442e-01

 107	1.070000000000001e+00
	-1.930039513381040e-16
	9.165069515545194e-20
	-6.212671516905059e-16
	2.973024567302739e-05
	4.226049571626442e-04
	9.767851843089795e-05
	7.693967602218112e-01

 108	1.080000000000001e+00
	-1.925042286099093e-16
	7.275232253064189e-20
	-6.234983353726581e-16
	3.040877976157090e-05
	4.271551753962394e-04
	1.019268377559015e-04
	7.693969981759864e-01

 109	1.090000000000001e+00
	-1.920194484361167e-16
	5.417739105997463e-20
	-6.256280345324592e-16
	3.107575685794231e-05
	4.314661753174251e-04
	1.062194343291509e-04
	7.693972386099267e-01

 110	1.100000000000001e+00
	-1.915486431538875e-16
	3.590165521008977e-20
	-6.276622376594223e-16
	3.173154926472606e-05
	4.355536650406214e-04
	1.105539960834160e-04
	7.693974813941219e-01

 111	1.110000000000001e+00
	-1.910909063462372e-16
	1.790024742351855e-20
	-6.296066047401439e-16
	3.237653869805262e-05
	4.394321818633523e-04
	1.149283621182173e-04
	7.693977264075299e-01

 112	1.120000000000001e+00
	-1.906453897605949e-16
	1.478196525598801e-22
	-6.314664790432929e-16
	3.301111190794227e-05
	4.431151411434550e-04
	1.193405112252127e-04
	7.693979735369332e-01

 113	1.130000000000001e+00
	-1.902113002474087e-16
	-1.738133379900834e-20
	-6.332468995010693e-16
	3.363565706349326e-05
	4.466148963996757e-04
	1.237885509628605e-04
	7.693982226763268e-01

 114	1.140000000000001e+00
	-1.897878967446814e-16
	-3.471317066797039e-20
	-6.349526134763646e-16
	3.425056079648192e-05
	4.499428061925822e-04
	1.282707073693905e-04
	7.693984737263440e-01

 115	1.150000000000001e+00
	-1.893744873292019e-16
	-5.187381094081774e-20
	-6.365880897371832e-16
	3.485620580881294e-05
	4.531093043480376e-04
	1.327853153638761e-04
	7.693987265937147e-01

 116	1.160000000000001e+00
	-1.889704263508115e-16
	-6.888946151877460e-20
	-6.381575314886243e-16
	3.545296896049455e-05
	4.561239709250417e-04
	1.373308098551526e-04
	7.693989811907717e-01

 117	1.170000000000001e+00
	-1.885751116622296e-16
	-8.578635404477746e-20
	-6.396648893381141e-16
	3.604121976521595e-05
	4.589956020182762e-04
	1.419057175559365e-04
	7.693992374349889e-01

 118	1.180000000000001e+00
	-1.881879819536891e-16
	-1.025906946714711e-19
	-6.411138740919059e-16
	3.662131923008083e-05
	4.617322770409367e-04
	1.465086494832758e-04
	7.693994952485635e-01

 119	1.190000000000001e+00
	-1.878085141988714e-16
	-1.193286246279533e-19
	-6.425079693003155e-16
	3.719361898457219e-05
	4.643414225737872e-04
	1.511382941152257e-04
	7.693997545580314e-01

 120	1.200000000000001e+00
	-1.874362212162946e-16
	-1.360261905227915e-19
	-6.438504434860812e-16
	3.775846065141052e-05
	4.668298722098169e-04
	1.557934111662964e-04
	7.694000152939188e-01

 121	1.210000000000001e+00
	-1.870706493483641e-16
	-1.527093234015593e-19
	-6.451443620048107e-16
	3.831617541866472e-05
	4.692039220868589e-04
	1.604728259398920e-04
	7.694002773904243e-01

 122	1.220000000000001e+00
	-1.867113762586874e-16
	-1.694038256564855e-19
	-6.463925984989777e-16
	3.886708377835100e-05
	4.714693819977841e-04
	1.651754242139230e-04
	7.694005407851374e-01

 123	1.230000000000001e+00
	-1.863580088469411e-16
	-1.861353649634913e-19
	-6.475978459175885e-16
	3.941149540187805e-05
	4.736316221122364e-04
	1.699001476154428e-04
	7.694008054187730e-01

 124	1.240000000000001e+00
	-1.860101812795251e-16
	-2.029294744958610e-19
	-6.487626270826496e-16
	3.994970912714394e-05
	4.756956154461660e-04
	1.746459894410231e-04
	7.694010712349412e-01

 125	1.250000000000001e+00
	-1.856675531333869e-16
	-2.198115587354563e-19
	-6.498893047911468e-16
	4.048201303593690e-05
	4.776659762847852e-04
	1.794119908813421e-04
	7.694013381799354e-01

 126	1.260000000000001e+00
	-1.853298076497650e-16
	-2.368069042691799e-19
	-6.509800914475510e-16
	4.100868460360404e-05
	4.795469948085224e-04
	1.841972376107350e-04
	7.694016062025403e-01

 127	1.270000000000001e+00
	-1.849966500940858e-16
	-2.539406950221087e-19
	-6.520370582270765e-16
	4.152999090580026e-05
	4.813426681961883e-04
	1.890008567051024e-04
	7.694018752538603e-01

 128	1.280000000000001e+00
	-1.846678062179084e-16
	-2.712380314374778e-19
	-6.530621437741843e-16
	4.204618886956608e-05
	4.830567284898125e-04
	1.938220138543681e-04
	7.694021452871618e-01

 129	1.290000000000001e+00
	-1.843430208185477e-16
	-2.887239531691412e-19
	-6.540571624442334e-16
	4.255752555806955e-05
	4.846926675053571e-04
	1.986599108385340e-04
	7.694024162577331e-01

 130	1.300000000000001e+00
	-1.840220563918674e-16
	-3.064234649029883e-19
	-6.550238120989330e-16
	4.306423848012414e-05
	4.862537590658492e-04
	2.035137832391849e-04
	7.694026881227565e-01

 131	1.310000000000001e+00
	-1.837046918736442e-16
	-3.243615649711305e-19
	-6.559636814683448e-16
	4.356655591710644e-05
	4.877430788207445e-04
	2.083828983610026e-04
	7.694029608411914e-01

 132	1.320000000000001e+00
	-1.833907214649066e-16
	-3.425632764659525e-19
	-6.568782570938028e-16
	4.406469726118507e-05
	4.891635218994117e-04
	2.132665533404134e-04
	7.694032343736666e-01

 133	1.330000000000001e+00
	-1.830799535366710e-16
	-3.610536806010220e-19
	-6.577689298672768e-16
	4.455887335985789e-05
	4.905178186288218e-04
	2.181640734208689e-04
	7.694035086823878e-01

 134	1.340000000000001e+00
	-1.827722096095947e-16
	-3.798579521027220e-19
	-6.586370011835232e-16
	4.504928686271934e-05
	4.918085485269435e-04
	2.230748103764927e-04
	7.694037837310450e-01

 135	1.350000000000001e+00
	-1.824673234041610e-16
	-3.990013964494477e-19
	-6.594836887218438e-16
	4.553613256715525e-05
	4.930381527646383e-04
	2.279981410678203e-04
	7.694040594847341e-01

 136	1.360000000000001e+00
	-1.821651399571538e-16
	-4.185094888061700e-19
	-6.603101318745384e-16
	4.601959776031893e-05
	4.942089452706242e-04
	2.329334661152123e-04
	7.694043359098822e-01

 137	1.370000000000001e+00
	-1.818655148003285e-16
	-4.384079145299205e-19
	-6.611173968391606e-16
	4.649986255529277e-05
	4.953231226366258e-04
	2.378802086771776e-04
	7.694046129741776e-01

 138	1.380000000000001e+00
	-1.815683131973536e-16
	-4.587226111471613e-19
	-6.619064813915603e-16
	4.697710021980081e-05
	4.963827729634242e-04
	2.428378133223192e-04
	7.694048906465095e-01

 139	1.390000000000001e+00
	-1.812734094352683e-16
	-4.794798117274680e-19
	-6.626783193564146e-16
	4.745147749622330e-05
	4.973898837732754e-04
	2.478057449849590e-04
	7.694051688969067e-01

 140	1.400000000000001e+00
	-1.809806861668837e-16
	-5.007060895987368e-19
	-6.634337847915987e-16
	4.792315491198691e-05
	4.983463491001549e-04
	2.527834879956759e-04
	7.694054476964862e-01

 141	1.410000000000001e+00
	-1.806900338007318e-16
	-5.224284043691083e-19
	-6.641736959022611e-16
	4.839228707966776e-05
	4.992539758564855e-04
	2.577705451790348e-04
	7.694057270173991e-01

 142	1.420000000000001e+00
	-1.804013499353576e-16
	-5.446741492378081e-19
	-6.648988186999500e-16
	4.885902298636851e-05
	5.001144895634556e-04
	2.627664370117241e-04
	7.694060068327858e-01

 143	1.430000000000001e+00
	-1.801145388349099e-16
	-5.674711995938679e-19
	-6.656098704215895e-16
	4.932350627210822e-05
	5.009295395216102e-04
	2.677707008351255e-04
	7.694062871167322e-01

 144	1.440000000000001e+00
	-1.798295109431830e-16
	-5.908479629164380e-19
	-6.663075227224727e-16
	4.978587549711328e-05
	5.017007034890810e-04
	2.727828901170653e-04
	7.694065678442263e-01

 145	1.450000000000001e+00
	-1.795461824334152e-16
	-6.148334300039619e-19
	-6.669924046568307e-16
	5.024626439801790e-05
	5.024294919265123e-04
	2.778025737581286e-04
	7.694068489911218e-01

 146	1.460000000000001e+00
	-1.792644747913226e-16
	-6.394572275725475e-19
	-6.676651054589139e-16
	5.070480213307690e-05
	5.031173518603837e-04
	2.828293354384658e-04
	7.694071305340994e-01

 147	1.470000000000001e+00
	-1.789843144290028e-16
	-6.647496722751569e-19
	-6.683261771368705e-16
	5.116161351657173e-05
	5.037656704098910e-04
	2.878627730015051e-04
	7.694074124506343e-01

 148	1.480000000000001e+00
	-1.787056323274956e-16
	-6.907418262048258e-19
	-6.689761368910873e-16
	5.161681924265033e-05
	5.043757780168350e-04
	2.929024978714176e-04
	7.694076947189603e-01

 149	1.490000000000001e+00
	-1.784283637059305e-16
	-7.174655539547712e-19
	-6.696154693680392e-16
	5.207053609888612e-05
	5.049489514128805e-04
	2.979481345015270e-04
	7.694079773180439e-01

 150	1.500000000000001e+00
	-1.781524477153321e-16
	-7.449535813187571e-19
	-6.702446287600750e-16
	5.252287716987737e-05
	5.054864163541590e-04
	3.029993198512090e-04
	7.694082602275494e-01

 151	1.510000000000001e+00
	-1.778778271552804e-16
	-7.732395557232851e-19
	-6.708640407609954e-16
	5.297395203123164e-05
	5.059893501492939e-04
	3.080557028890685e-04
	7.694085434278157e-01

 152	1.520000000000001e+00
	-1.776044482117483e-16
	-8.023581084931922e-19
	-6.714741043866906e-16
	5.342386693429779e-05
	5.064588840035550e-04
	3.131169441204634e-04
	7.694088268998276e-01

 153	1.530000000000001e+00
	-1.773322602145570e-16
	-8.323449190596974e-19
	-6.720751936695661e-16
	5.387272498201766e-05
	5.068961051989113e-04
	3.181827151376242e-04
	7.694091106251901e-01

 154	1.540000000000001e+00