Title: ** sch_path: /home/andylithia/openmpw/project-yatsuhashi-chip1/xschem/gmid_test/nmos_test.sch
Date: Sun Jul 17 22:51:45  2022
Plotname: DC transfer characteristic
Flags: real
No. Variables: 8
No. Points: 181
Variables:
	0	v(v-sweep)	voltage
	1	@m.xm1.msky130_fd_pr__nfet_01v8[cgb]	capacitance
	2	@m.xm1.msky130_fd_pr__nfet_01v8[cgd]	capacitance
	3	@m.xm1.msky130_fd_pr__nfet_01v8[cgs]	capacitance
	4	@m.xm1.msky130_fd_pr__nfet_01v8[gds]	admittance
	5	@m.xm1.msky130_fd_pr__nfet_01v8[gm]	admittance
	6	i(@m.xm1.msky130_fd_pr__nfet_01v8[id])	current
	7	v(@m.xm1.msky130_fd_pr__nfet_01v8[vth])	voltage
Values:
 0	0.000000000000000e+00
	-1.049070588898009e-14
	-4.841534519660177e-18
	-1.964014049523381e-14
	4.621890677544301e-08
	1.490185734228906e-06
	1.894586545958357e-07
	1.981749136955952e-01

 1	1.000000000000000e-02
	-1.037702356037623e-14
	-4.972065711937787e-18
	-1.990833431461232e-14
	4.982727862226294e-08
	1.611587354415110e-06
	2.049594907144351e-07
	1.981749155325196e-01

 2	2.000000000000000e-02
	-1.026480202894625e-14
	-5.106195729936747e-18
	-2.017617220407985e-14
	5.370326441476723e-08
	1.743022701645338e-06
	2.217238169224074e-07
	1.981749175191856e-01

 3	3.000000000000000e-02
	-1.015406401917368e-14
	-5.244027752923564e-18
	-2.044356175512210e-14
	5.786523678978407e-08
	1.885361914214139e-06
	2.398562559187600e-07
	1.981749196679947e-01

 4	4.000000000000000e-02
	-1.004483155383754e-14
	-5.385668143360425e-18
	-2.071041109326588e-14
	6.233268589805013e-08
	2.039557010793441e-06
	2.594705345423170e-07
	1.981749219924240e-01

 5	5.000000000000000e-02
	-9.937125913475732e-15
	-5.531226555969702e-18
	-2.097662899098085e-14
	6.712627461765582e-08
	2.206650209031904e-06
	2.806903434810178e-07
	1.981749245071386e-01

 6	6.000000000000000e-02
	-9.830967597844722e-15
	-5.680816050975175e-18
	-2.124212497896147e-14
	7.226789550458514e-08
	2.387783096103631e-06
	3.036502843630354e-07
	1.981749272280898e-01

 7	7.000000000000001e-02
	-9.726376289451929e-15
	-5.834553211691401e-18
	-2.150680945551396e-14
	7.778072947179358e-08
	2.584206728480360e-06
	3.284969131312808e-07
	1.981749301726541e-01

 8	8.000000000000000e-02
	-9.623370819230693e-15
	-5.992558266651291e-18
	-2.177059379378248e-14
	8.368930618520730e-08
	2.797292742829558e-06
	3.553898893989941e-07
	1.981749333597568e-01

 9	9.000000000000000e-02
	-9.521969134420389e-15
	-6.154955216461179e-18
	-2.203339044655560e-14
	9.001956616207690e-08
	3.028545564415703e-06
	3.845032423254559e-07
	1.981749368100262e-01

 10	9.999999999999999e-02
	-9.422188268706916e-15
	-6.321871965588610e-18
	-2.229511304840450e-14
	9.679892455442619e-08
	3.279615803613109e-06
	4.160267644360142e-07
	1.981749405459626e-01

 11	1.100000000000000e-01
	-9.324044314671285e-15
	-6.493440459292837e-18
	-2.255567651491480e-14
	1.040563365978987e-07
	3.552314935016101e-06
	4.501675457363653e-07
	1.981749445921175e-01

 12	1.200000000000000e-01
	-9.227552398586173e-15
	-6.669796825921794e-18
	-2.281499713878493e-14
	1.118223647041520e-07
	3.848631357030938e-06
	4.871516614331707e-07
	1.981749489752915e-01

 13	1.300000000000000e-01
	-9.132726657592560e-15
	-6.851081524805233e-18
	-2.307299268257674e-14
	1.201292471731478e-07
	4.170747932614360e-06
	5.272260275663086e-07
	1.981749537247578e-01

 14	1.400000000000000e-01
	-9.039580219280500e-15
	-7.037439499989938e-18
	-2.332958246791656e-14
	1.290109685002136e-07
	4.521061113826045e-06
	5.706604398752671e-07
	1.981749588725050e-01

 15	1.500000000000000e-01
	-8.948125183690057e-15
	-7.229020340068928e-18
	-2.358468746096013e-14
	1.385033312517305e-07
	4.902201753911354e-06
	6.177498122548470e-07
	1.981749644534961e-01

 16	1.600000000000000e-01
	-8.858372607740678e-15
	-7.425978444373829e-18
	-2.383823035394692e-14
	1.486440294826327e-07
	5.317057710528918e-06
	6.688166321926813e-07
	1.981749705059678e-01

 17	1.700000000000000e-01
	-8.770332492089142e-15
	-7.628473195806988e-18
	-2.409013564268689e-14
	1.594727236687619e-07
	5.768798342274302e-06
	7.242136516110416e-07
	1.981749770717461e-01

 18	1.800000000000000e-01
	-8.684013770408178e-15
	-7.836669140608736e-18
	-2.434032969983724e-14
	1.710311171274229e-07
	6.260900997589111e-06
	7.843268325425996e-07
	1.981749841965935e-01

 19	1.900000000000000e-01
	-8.599424301070773e-15
	-8.050736175363404e-18
	-2.458874084384154e-14
	1.833630339003094e-07
	6.797179590236107e-06
	8.495785680374355e-07
	1.981749919305999e-01

 20	2.000000000000000e-01
	-8.516570861216818e-15
	-8.270849741568896e-18
	-2.483529940342230e-14
	1.965144980743806e-07
	7.381815348497790e-06
	9.204311996069180e-07
	1.981750003285850e-01

 21	2.100000000000000e-01
	-8.435459143172332e-15
	-8.497191028101800e-18
	-2.507993777753130e-14
	2.105338145181377e-07
	8.019389815828204e-06
	9.973908533356452e-07
	1.981750094505701e-01

 22	2.200000000000001e-01
	-8.356093753183287e-15
	-8.729947181936490e-18
	-2.532259049068197e-14
	2.254716510134694e-07
	8.714920168571752e-06
	1.081011617511784e-06
	1.981750193622629e-01

 23	2.300000000000001e-01
	-8.278478212420577e-15
	-8.969311527483159e-18
	-2.556319424360134e-14
	2.413811217663294e-07
	9.473896901234923e-06
	1.171900085207960e-06
	1.981750301355980e-01

 24	2.400000000000001e-01
	-8.202614960204935e-15
	-9.215483794935505e-18
	-2.580168795915793e-14
	2.583178722835359e-07
	1.030232391135870e-05
	1.270720285659816e-06
	1.981750418493299e-01

 25	2.500000000000001e-01
	-8.128505359395206e-15
	-9.468670358034474e-18
	-2.603801282353753e-14
	2.763401656077421e-07
	1.120676099397263e-05
	1.378199028501877e-06
	1.981750545896572e-01

 26	2.600000000000001e-01
	-8.056149703877448e-15
	-9.729084481674867e-18
	-2.627211232265418e-14
	2.955089699080690e-07
	1.219436872960231e-05
	1.495131684891940e-06
	1.981750684509134e-01

 27	2.700000000000001e-01
	-7.985547228086742e-15
	-9.996946579800973e-18
	-2.650393227380047e-14
	3.158880474305190e-07
	1.327295571956682e-05
	1.622388429246368e-06
	1.981750835363114e-01

 28	2.800000000000001e-01
	-7.916696118488474e-15
	-1.027248448406296e-17
	-2.673342085255692e-14
	3.375440448197851e-07
	1.445102808756070e-05
	1.760920964674806e-06
	1.981750999587323e-01

 29	2.900000000000001e-01
	-7.849593526941960e-15
	-1.055593372372506e-17
	-2.696052861499311e-14
	3.605465848326972e-07
	1.573784112702046e-05
	1.911769754196964e-06
	1.981751178415969e-01

 30	3.000000000000001e-01
	-7.784235585864156e-15
	-1.084753781734412e-17
	-2.718520851521078e-14
	3.849683594736381e-07
	1.714345292934705e-05
	2.076071778399987e-06
	1.981751373197766e-01

 31	3.100000000000001e-01
	-7.720617425108064e-15
	-1.114754857676023e-17
	-2.740741591829029e-14
	4.108852245936874e-07
	1.867877977852737e-05
	2.255068838299166e-06
	1.981751585405835e-01

 32	3.200000000000001e-01
	-7.658733190467323e-15
	-1.145622642396947e-17
	-2.762710860871649e-14
	4.383762960084248e-07
	2.035565304302060e-05
	2.450116419748983e-06
	1.981751816648228e-01

 33	3.300000000000001e-01
	-7.598576063715034e-15
	-1.177384072147811e-17
	-2.784424679437222e-14
	4.675240472044481e-07
	2.218687723594906e-05
	2.662693132762048e-06
	1.981752068679128e-01

 34	3.400000000000001e-01
	-7.540138284083089e-15
	-1.210067011676532e-17
	-2.805879310619951e-14
	4.984144087219193e-07
	2.418628884978099e-05
	2.894410735480367e-06
	1.981752343410730e-01

 35	3.500000000000001e-01
	-7.483411171086138e-15
	-1.243700290151374e-17
	-2.827071259363939e-14
	5.311368693203526e-07
	2.636881550205091e-05
	3.147024748256911e-06
	1.981752642925950e-01

 36	3.600000000000002e-01
	-7.428385148592781e-15
	-1.278313738630494e-17
	-2.847997271597250e-14
	5.657845790576298e-07
	2.875053485461643e-05
	3.422445658300816e-06
	1.981752969491572e-01

 37	3.700000000000002e-01
	-7.375049770045725e-15
	-1.313938229150137e-17
	-2.868654332969016e-14
	6.024544544382531e-07
	3.134873269100200e-05
	3.722750709571339e-06
	1.981753325572401e-01

 38	3.800000000000002e-01
	-7.323393744731921e-15
	-1.350605715508679e-17
	-2.889039667203654e-14
	6.412472858168773e-07
	3.418195945528884e-05
	4.050196266044973e-06
	1.981753713845855e-01

 39	3.900000000000002e-01
	-7.273404965003552e-15
	-1.388349275826288e-17
	-2.909150734086861e-14
	6.822678472774318e-07
	3.727008447261137e-05
	4.407230729091818e-06
	1.981754137217372e-01

 40	4.000000000000002e-01
	-7.225070534351029e-15
	-1.427203156965385e-17
	-2.928985227098803e-14
	7.256250092474773e-07
	4.063434698676924e-05
	4.796507981470608e-06
	1.981754598836310e-01

 41	4.100000000000002e-01
	-7.178376796229544e-15
	-1.467202820899821e-17
	-2.948541070710567e-14
	7.714318541523924e-07
	4.429740306605026e-05
	5.220901321376981e-06
	1.981755102112565e-01

 42	4.200000000000002e-01
	-7.133309363542030e-15
	-1.508384993127162e-17
	-2.967816417360360e-14
	8.198057954655074e-07
	4.828336734564258e-05
	5.683517840068248e-06
	1.981755650733568e-01

 43	4.300000000000002e-01
	-7.089853148682515e-15
	-1.550787713221204e-17
	-2.986809644126432e-14
	8.708687005689550e-07
	5.261784849576820e-05
	6.187713185863930e-06
	1.981756248681950e-01

 44	4.400000000000002e-01
	-7.047992394045161e-15
	-1.594450387628759e-17
	-3.005519349114158e-14
	9.247470179070137e-07
	5.732797723091211e-05
	6.737106645832300e-06
	1.981756900253268e-01

 45	4.500000000000002e-01
	-7.007710702907185e-15
	-1.639413844818558e-17
	-3.023944347574680e-14
	9.815719089896655e-07
	6.244242560944703e-05
	7.335596464278982e-06
	1.981757610074393e-01

 46	4.600000000000002e-01
	-6.968991070594897e-15
	-1.685720392896800e-17
	-3.042083667773065e-14
	1.041479385890723e-06
	6.799141631705089e-05
	7.987375304353431e-06
	1.981758383121758e-01

 47	4.700000000000003e-01
	-6.931815915845420e-15
	-1.733413879809391e-17
	-3.059936546623797e-14
	1.104610454982335e-06
	7.400672058411909e-05
	8.696945745784956e-06
	1.981759224739721e-01

 48	4.800000000000003e-01
	-6.896167112279333e-15
	-1.782539756256488e-17
	-3.077502425111480e-14
	1.171111267758204e-06
	8.052164335970171e-05
	9.469135698104162e-06
	1.981760140658980e-01

 49	4.900000000000003e-01
	-6.862026019901746e-15
	-1.833145141453009e-17
	-3.094780943514762e-14
	1.241133279722081e-06
	8.757099435516417e-05
	1.030911359486259e-05
	1.981761137014476e-01

 50	5.000000000000002e-01
	-6.829373516553341e-15
	-1.885278891873973e-17
	-3.111771936451144e-14
	1.314833418457150e-06
	9.519104358264337e-05
	1.122240322052759e-05
	1.981762220363117e-01

 51	5.100000000000002e-01
	-6.798190029235423e-15
	-1.938991673132175e-17
	-3.128475427760379e-14
	1.392374262148277e-06
	1.034194600493798e-04
	1.221489800814055e-05
	1.981763397700624e-01

 52	5.200000000000002e-01
	-6.768455565237039e-15
	-1.994336035142730e-17
	-3.144891625243810e-14
	1.473924230002208e-06
	1.122952323317713e-04
	1.329287463272042e-05
	1.981764676477633e-01

 53	5.300000000000002e-01
	-6.740149742995519e-15
	-2.051366490736396e-17
	-3.161020915276708e-14
	1.559657786204104e-06
	1.218585698451846e-04
	1.446300571307264e-05
	1.981766064614903e-01

 54	5.400000000000003e-01
	-6.713251822625123e-15
	-2.110139597894266e-17
	-3.176863857310479e-14
	1.649755659262213e-06
	1.321507837493217e-04
	1.573237142341947e-05
	1.981767570516876e-01

 55	5.500000000000003e-01
	-6.687740736052762e-15
	-2.170714045782716e-17
	-3.192421178280999e-14
	1.744405078827549e-06
	1.432141465860890e-04
	1.710846980642584e-05
	1.981769203083941e-01

 56	5.600000000000003e-01
	-6.663595116703183e-15
	-2.233150744778419e-17
	-3.207693766939088e-14
	1.843800032334080e-06
	1.550917299388106e-04
	1.859922557110821e-05
	1.981770971722877e-01

 57	5.700000000000003e-01
	-6.640793328679716e-15
	-2.297512920683442e-17
	-3.222682668118558e-14
	1.948141544087593e-06
	1.678272196288390e-04
	2.021299715312318e-05
	1.981772886355136e-01

 58	5.800000000000003e-01
	-6.619313495390675e-15
	-2.363866213340016e-17
	-3.237389076956833e-14
	2.057637979739270e-06
	1.814647082280405e-04
	2.195858181139417e-05
	1.981774957422804e-01

 59	5.900000000000003e-01
	-6.599133527575049e-15
	-2.432278779865769e-17
	-3.251814333082514e-14
	2.172505379414352e-06
	1.960484649622944e-04
	2.384521853429918e-05
	1.981777195891983e-01

 60	6.000000000000003e-01
	-6.580231150685217e-15
	-2.502821402742541e-17
	-3.265959914783804e-14
	2.292967823127860e-06
	2.116226834100904e-04
	2.588258853104472e-05
	1.981779613253322e-01

 61	6.100000000000003e-01
	-6.562583931587686e-15
	-2.575567603003243e-17
	-3.279827433171006e-14
	2.419257832508419e-06
	2.282312077584699e-04
	2.808081308969226e-05
	1.981782221519414e-01

 62	6.200000000000003e-01
	-6.546169304546735e-15
	-2.650593758775028e-17
	-3.293418626345806e-14
	2.551616813269288e-06
	2.459172387619048e-04
	3.045044859286822e-05
	1.981785033218726e-01

 63	6.300000000000003e-01
	-6.530964596459575e-15
	-2.727979229449749e-17
	-3.306735353589347e-14
	2.690295543312411e-06
	2.647230209529155e-04
	3.300247849569072e-05
	1.981788061386019e-01

 64	6.400000000000003e-01
	-6.516947051314627e-15
	-2.807806485767746e-17
	-3.319779589580507e-14
	2.835554711827640e-06
	2.846895130699066e-04
	3.574830208806054e-05
	1.981791319548991e-01

 65	6.500000000000004e-01
	-6.504093853848521e-15
	-2.890161246115959e-17
	-3.332553418655147e-14
	2.987665515255912e-06
	3.058560440904745e-04
	3.869971988529306e-05
	1.981794821710798e-01

 66	6.600000000000004e-01
	-6.492382152379963e-15
	-2.975132619357188e-17
	-3.345059029116474e-14
	3.146910316521844e-06
	3.282599576786281e-04
	4.186891551711125e-05
	1.981798582328447e-01

 67	6.700000000000004e-01
	-6.481789080802777e-15
	-3.062813254524035e-17
	-3.357298707605928e-14
	3.313583374509456e-06
	3.519362482627987e-04
	4.526843401522689e-05
	1.981802616287135e-01

 68	6.800000000000004e-01
	-6.472291779722211e-15
	-3.153299497729678e-17
	-3.369274833543490e-14
	3.487991651355619e-06
	3.769171923480630e-04
	4.891115643393219e-05
	1.981806938869921e-01

 69	6.900000000000004e-01
	-6.463867416722585e-15
	-3.246691556664838e-17
	-3.380989873645594e-14
	3.670455705769373e-06
	4.032319790200476e-04
	5.281027077601616e-05
	1.981811565723274e-01

 70	7.000000000000004e-01
	-6.456493205756620e-15
	-3.343093673071916e-17
	-3.392446376528158e-14
	3.861310681255695e-06
	4.309063439089938e-04
	5.697923923756597e-05
	1.981816512818141e-01

 71	7.100000000000004e-01
	-6.450146425649344e-15
	-3.442614303606280e-17
	-3.403646967401730e-14
	4.060907398829689e-06
	4.599622111395606e-04
	6.143176182928388e-05
	1.981821796406844e-01

 72	7.200000000000004e-01
	-6.444804437712236e-15
	-3.545366309517975e-17
	-3.414594342865076e-14
	4.269613564557756e-06
	4.904173479851995e-04
	6.618173647829744e-05
	1.981827432975773e-01

 73	7.300000000000004e-01
	-6.440444702465261e-15
	-3.651467155610536e-17
	-3.425291265802948e-14
	4.487815103058477e-06
	5.222850370656724e-04
	7.124321576233478e-05
	1.981833439193990e-01

 74	7.400000000000004e-01
	-6.437044795467140e-15
	-3.761039118955967e-17
	-3.435740560393181e-14
	4.715917628945109e-06
	5.555737709644357e-04
	7.663036047682010e-05
	1.981839831858301e-01

 75	7.500000000000004e-01
	-6.434582422255501e-15
	-3.874209507873721e-17
	-3.445945107227794e-14
	4.954348069101907e-06
	5.902869740924423e-04
	8.235739028407848e-05
	1.981846627834756e-01

 76	7.600000000000005e-01
	-6.433035432401143e-15
	-3.991110891706440e-17
	-3.455907838552121e-14
	5.203556449665532e-06
	6.264227564813113e-04
	8.843853174146508e-05
	1.981853843997011e-01

 77	7.700000000000005e-01
	-6.432381832682082e-15
	-4.111881341954897e-17
	-3.465631733625516e-14
	5.464017862644550e-06
	6.639737039492770e-04
	9.488796405095037e-05
	1.981861497162227e-01

 78	7.800000000000005e-01
	-6.432599799384426e-15
	-4.236664685365021e-17
	-3.475119814206758e-14
	5.736234628267440e-06
	7.029267087473670e-04
	1.017197629155188e-04
	1.981869604024372e-01

 79	7.900000000000005e-01
	-6.433667689739062e-15
	-4.365610769590622e-17
	-3.484375140166697e-14
	6.020738670418171e-06
	7.432628443628809e-04
	1.089478429266798e-04
	1.981878181086171e-01

 80	8.000000000000005e-01
	-6.435564052504025e-15
	-4.498875742090732e-17
	-3.493400805230237e-14
	6.318094123920940e-06
	7.849572876376883e-04
	1.165858989416061e-04
	1.981887244589527e-01

 81	8.100000000000005e-01
	-6.438267637703852e-15
	-4.636622342954161e-17
	-3.502199932849459e-14
	6.628900193990584e-06
	8.279792907571030e-04
	1.246473469369486e-04
	1.981896810445584e-01

 82	8.200000000000005e-01
	-6.441757405538007e-15
	-4.779020212382185e-17
	-3.510775672209074e-14
	6.953794289902840e-06
	8.722922049916482e-04
	1.331452648485524e-04
	1.981906894164474e-01

 83	8.300000000000005e-01
	-6.446012534471873e-15
	-4.926246213598492e-17
	-3.519131194365149e-14
	7.293455456884318e-06
	9.178535573408969e-04
	1.420923339213694e-04
	1.981917510786033e-01

 84	8.400000000000005e-01
	-6.451012428523716e-15
	-5.078484771997673e-17
	-3.527269688517695e-14
	7.648608132414179e-06
	9.646151804506851e-04
	1.515007811014009e-04
	1.981928674811340e-01

 85	8.500000000000005e-01
	-6.456736723762746e-15
	-5.235928231385869e-17
	-3.535194358417199e-14
	8.020026255600070e-06
	1.012523395368062e-03
	1.613823230010359e-04
	1.981940400136396e-01

 86	8.600000000000005e-01
	-6.463165294033138e-15
	-5.398777228212610e-17
	-3.542908418905076e-14
	8.408537761087386e-06
	1.061519245880292e-03
	1.717481119605790e-04
	1.981952699988064e-01

 87	8.700000000000006e-01
	-6.470278255919620e-15
	-5.567241084740467e-17
	-3.550415092587564e-14
	8.815029492125819e-06
	1.111538782372899e-03
	1.826086847119951e-04
	1.981965586863282e-01

 88	8.800000000000006e-01
	-6.478055972970562e-15
	-5.741538222149924e-17
	-3.557717606642335e-14
	9.240452571004703e-06
	1.162513392355738e-03
	1.939739141261418e-04
	1.981979072471672e-01

 89	8.900000000000006e-01
	-6.486479059194742e-15
	-5.921896594626325e-17
	-3.564819189756874e-14
	9.685828269133919e-06
	1.214370174063094e-03
	2.058529644923302e-04
	1.981993167682510e-01

 90	9.000000000000006e-01
	-6.495528381847952e-15
	-6.108554145533884e-17
	-3.571723069197342e-14
	1.015225442365423e-05
	1.267032348851179e-03
	2.182542507394967e-04
	1.982007882476302e-01

 91	9.100000000000006e-01
	-6.505185063525616e-15
	-6.301759286835345e-17
	-3.578432468006562e-14
	1.064091245267847e-05
	1.320419707509310e-03
	2.311854019622757e-04
	1.982023225901353e-01

 92	9.200000000000006e-01
	-6.515430483577928e-15
	-6.501771402977125e-17
	-3.584950602329316e-14
	1.115307502716620e-05
	1.374449085082985e-03
	2.446532295635977e-04
	1.982039206035970e-01

 93	9.300000000000006e-01
	-6.526246278863276e-15
	-6.708861380521424e-17
	-3.591280678863212e-14
	1.169011446410692e-05
	1.429034858389359e-03
	2.586637002691693e-04
	1.982055829956349e-01

 94	9.400000000000006e-01
	-6.537614343855744e-15
	-6.923312164870830e-17
	-3.597425892432996e-14
	1.225351191321492e-05
	1.484089460096049e-03
	2.732219142092382e-04
	1.982073103710406e-01

 95	9.500000000000006e-01
	-6.549516830122382e-15
	-7.145419345497526e-17
	-3.603389423686106e-14
	1.284486741782688e-05
	1.539523903038428e-03
	2.883320882006194e-04
	1.982091032297908e-01

 96	9.600000000000006e-01
	-6.561936145185310e-15
	-7.375491771159212e-17
	-3.609174436907085e-14
	1.346591094024620e-05
	1.595248308370600e-03
	3.039975442981717e-04
	1.982109619656840e-01

 97	9.700000000000006e-01
	-6.574854950782950e-15
	-7.613852196656422e-17
	-3.614784077948366e-14
	1.411851445251498e-05
	1.651172431180195e-03
	3.202207036209217e-04
	1.982128868655915e-01

 98	9.800000000000006e-01
	-6.588256160545051e-15
	-7.860837962757278e-17
	-3.620221472274739e-14
	1.480470520564307e-05
	1.707206177342835e-03
	3.370030853949751e-04
	1.982148781093461e-01

 99	9.900000000000007e-01
	-6.602122937094560e-15
	-8.116801710995521e-17
	-3.625489723118770e-14
	1.552668030382118e-05
	1.763260105642100e-03
	3.543453110942867e-04
	1.982169357702278e-01

 100	1.000000000000001e+00
	-6.616438688589413e-15
	-8.382112135125560e-17
	-3.630591909744306e-14
	1.628682272524592e-05
	1.819245909525832e-03
	3.722471135023776e-04
	1.982190598160312e-01

 101	1.010000000000001e+00
	-6.631187064716407e-15
	-8.657154771096443e-17
	-3.635531085815080e-14
	1.708771894803764e-05
	1.875076873297714e-03
	3.907073504638698e-04
	1.982212501106986e-01

 102	1.020000000000001e+00
	-6.646351952148571e-15
	-8.942332827493037e-17
	-3.640310277865419e-14
	1.793217835851646e-05
	1.930668298042062e-03
	4.097240230452765e-04
	1.982235064164767e-01

 103	1.030000000000001e+00
	-6.661917469476528e-15
	-9.238068058473846e-17
	-3.644932483869916e-14
	1.882325463998509e-05
	1.985937893134731e-03
	4.292942977803093e-04
	1.982258283965583e-01

 104	1.040000000000001e+00
	-6.677867961623825e-15
	-9.544801681323134e-17
	-3.649400671908895e-14
	1.976426936332679e-05
	2.040806129789179e-03
	4.494145326365508e-04
	1.982282156181546e-01

 105	1.050000000000001e+00
	-6.694187993755186e-15
	-9.862995340815688e-17
	-3.653717778926419e-14
	2.075883802633863e-05
	2.095196553708692e-03
	4.700803063080407e-04
	1.982306675559914e-01

 106	1.060000000000001e+00
	-6.710862344685420e-15
	-1.019313212268839e-16
	-3.657886709577667e-14
	2.181089881695130e-05
	2.149036054549172e-03
	4.912864504123985e-04
	1.982331835961195e-01

 107	1.070000000000001e+00
	-6.727875999796503e-15
	-1.053571761858864e-16
	-3.661910335162249e-14
	2.292474440646552e-05
	2.202255090526082e-03
	5.130270841513637e-04
	1.982357630400376e-01

 108	1.080000000000001e+00
	-6.745214143468669e-15
	-1.089128104496443e-16
	-3.665791492640249e-14
	2.410505711277975e-05
	2.254787867112562e-03
	5.352956509802801e-04
	1.982384051090434e-01

 109	1.090000000000001e+00
	-6.762862151031261e-15
	-1.126037641843887e-16
	-3.669532983727537e-14
	2.535694781031507e-05
	2.306572469359730e-03
	5.580849568245300e-04
	1.982411089487795e-01

 110	1.100000000000001e+00
	-6.780805580236911e-15
	-1.164358379029765e-16
	-3.673137574067157e-14
	2.668599900292440e-05
	2.357550947916280e-03
	5.813872093792181e-04
	1.982438736338983e-01

 111	1.110000000000001e+00
	-6.799030162263101e-15
	-1.204151054279471e-16
	-3.676607992473270e-14
	2.809831251830232e-05
	2.407669359322572e-03
	6.051940580317777e-04
	1.982466981727964e-01

 112	1.120000000000001e+00
	-6.817521792243315e-15
	-1.245479275005527e-16
	-3.679946930244399e-14
	2.960056232691843e-05
	2.456877761599539e-03
	6.294966339553238e-04
	1.982495815123825e-01

 113	1.130000000000001e+00
	-6.836266519329307e-15
	-1.288409660642264e-16
	-3.683157040542626e-14
	3.120005303464657e-05
	2.505130166539987e-03
	6.542855899328911e-04
	1.982525225428121e-01

 114	1.140000000000001e+00
	-6.855250536284928e-15
	-1.333011992515879e-16
	-3.686240937835408e-14
	3.290478464505542e-05
	2.552384450437459e-03
	6.795511394885603e-04
	1.982555201021233e-01

 115	1.150000000000001e+00
	-6.874460168611930e-15
	-1.379359371045594e-16
	-3.689201197396701e-14
	3.472352423329453e-05
	2.598602225255492e-03
	7.052830949202736e-04
	1.982585729807548e-01

 116	1.160000000000001e+00
	-6.893881863206323e-15
	-1.427528380575755e-16
	-3.692040354864133e-14
	3.666588521654911e-05
	2.643748672451010e-03
	7.314709038503149e-04
	1.982616799258899e-01

 117	1.170000000000001e+00
	-6.913502176543751e-15
	-1.477599262141539e-16
	-3.694760905848987e-14
	3.874241494322358e-05
	2.687792341824085e-03
	7.581036839325763e-04
	1.982648396455707e-01

 118	1.180000000000001e+00
	-6.933307762391883e-15
	-1.529656094471610e-16
	-3.697365305595743e-14
	4.096469135029245e-05
	2.730704917878674e-03
	7.851702553798995e-04
	1.982680508125682e-01

 119	1.190000000000001e+00
	-6.953285359046627e-15
	-1.583786983530505e-16
	-3.699855968688075e-14
	4.334542945026281e-05
	2.772460956256282e-03
	8.126591710002794e-04
	1.982713120679451e-01

 120	1.200000000000001e+00
	-6.973421776088985e-15
	-1.640084260900301e-16
	-3.702235268798101e-14
	4.589859839867348e-05
	2.813037592856679e-03
	8.405587434565049e-04
	1.982746220242849e-01

 121	1.210000000000001e+00
	-6.993703880659607e-15
	-1.698644691294917e-16
	-3.704505538475801e-14
	4.863954985059841e-05
	2.852414228302637e-03
	8.688570694901595e-04
	1.982779792685792e-01

 122	1.220000000000001e+00
	-7.014118583246415e-15
	-1.759569689492660e-16
	-3.706669068975596e-14
	5.158515822799466e-05
	2.890572190457020e-03
	8.975420508778388e-04
	1.982813823647081e-01

 123	1.230000000000001e+00
	-7.034652822982400e-15
	-1.822965546959271e-16
	-3.708728110117040e-14
	5.475397337323623e-05
	2.927494377779594e-03
	9.266014119147753e-04
	1.982848298555173e-01

 124	1.240000000000001e+00
	-7.055293552450057e-15
	-1.888943668418270e-16
	-3.710684870176637e-14
	5.816638583803025e-05
	2.963164886443887e-03
	9.560227132495118e-04
	1.982883202644662e-01

 125	1.250000000000001e+00
	-7.076027721989194e-15
	-1.957620818604327e-16
	-3.712541515807929e-14
	6.184480472646336e-05
	2.997568624348856e-03
	9.857933619235554e-04
	1.982918520968164e-01

 126	1.260000000000001e+00
	-7.096842263506234e-15
	-2.029119379409675e-16
	-3.714300171986917e-14
	6.581384754589428e-05
	3.030690915488561e-03
	1.015900617502632e-03
	1.982954238403611e-01

 127	1.270000000000001e+00
	-7.117724073783629e-15
	-2.103567617601664e-16
	-3.715962921980001e-14
	7.010054088349489e-05
	3.062517098623218e-03
	1.046331594223147e-03
	1.982990339656761e-01

 128	1.280000000000001e+00
	-7.138659997289622e-15
	-2.181099963250891e-16
	-3.717531807331672e-14
	7.473452987669708e-05
	3.093032124867383e-03
	1.077073259119849e-03
	1.983026809259147e-01

 129	1.290000000000001e+00
	-7.159636808490043e-15
	-2.261857298964932e-16
	-3.719008827869141e-14
	7.974829333412601e-05
	3.122220159721070e-03
	1.108112426151360e-03
	1.983063631560974e-01

 130	1.300000000000001e+00
	-7.180641193666178e-15
	-2.345987259967185e-16
	-3.720395941721278e-14
	8.517735993661320e-05
	3.150064196260417e-03
	1.139435746400853e-03
	1.983100790719564e-01

 131	1.310000000000001e+00
	-7.201659732245293e-15
	-2.433644544998413e-16
	-3.721695065349119e-14
	9.106051915130865e-05
	3.176545687721789e-03
	1.171029694503681e-03
	1.983138270683252e-01

 132	1.320000000000001e+00
	-7.222678877653414e-15
	-2.524991237944883e-16
	-3.722908073585355e-14
	9.744001827533219e-05
	3.201644209588785e-03
	1.202880551544976e-03
	1.983176055171158e-01

 133	1.330000000000001e+00
	-7.243684937703763e-15
	-2.620197140013208e-16
	-3.724036799680159e-14
	1.043617343514672e-04
	3.225337163544376e-03
	1.234974384782170e-03
	1.983214127649102e-01

 134	1.340000000000001e+00
	-7.264664054538276e-15
	-2.719440112174625e-16
	-3.725083035350840e-14
	1.118753065557159e-04
	3.247599538265830e-03
	1.267297024683537e-03
	1.983252471302409e-01

 135	1.350000000000001e+00
	-7.285602184145085e-15
	-2.822906427492465e-16
	-3.726048530832729e-14
	1.200342110786990e-04
	3.268403744959250e-03
	1.299834039937841e-03
	1.983291069006285e-01

 136	1.360000000000001e+00
	-7.306485075480134e-15
	-2.930791132821529e-16
	-3.726934994928853e-14
	1.288957566130124e-04
	3.287719548621834e-03
	1.332570711284275e-03
	1.983329903294719e-01

 137	1.370000000000001e+00
	-7.327298249227974e-15
	-3.043298419227568e-16
	-3.727744095055868e-14
	1.385209745208143e-04
	3.305514119057088e-03
	1.365492005236573e-03
	1.983368956329487e-01

 138	1.380000000000001e+00
	-7.348026976243848e-15
	-3.160642000319741e-16
	-3.728477457283851e-14
	1.489743739308914e-04
	3.321752228300712e-03
	1.398582549029123e-03
	1.983408209870265e-01

 139	1.390000000000001e+00
	-7.368656255728025e-15
	-3.283045497510883e-16
	-3.729136666367536e-14
	1.603235289148409e-04
	3.336396622835565e-03
	1.431826608388115e-03
	1.983447645248430e-01

 140	1.400000000000001e+00
	-7.389170793192356e-15
	-3.410742831028794e-16
	-3.729723265766565e-14
	1.726384632318204e-04
	3.349408599117448e-03
	1.465208070016889e-03
	1.983487243346216e-01

 141	1.410000000000001e+00
	-7.409554978289331e-15
	-3.543978615284221e-16
	-3.730238757652497e-14
	1.859907988306491e-04
	3.360748808663121e-03
	1.498710430960036e-03
	1.983526984584156e-01

 142	1.420000000000001e+00
	-7.429792862585535e-15
	-3.683008556965525e-16
	-3.730684602900279e-14
	2.004526384523971e-04
	3.370378313327731e-03
	1.532316797248029e-03
	1.983566848919503e-01

 143	1.430000000000001e+00
	-7.449868137373842e-15
	-3.828099853968939e-16
	-3.731062221061929e-14
	2.160951614599370e-04
	3.378259901464422e-03
	1.566009894384173e-03
	1.983606815858649e-01

 144	1.440000000000001e+00
	-7.469764111632347e-15
	-3.979531592988813e-16
	-3.731372990320361e-14
	2.329869265076663e-04
	3.384359660630824e-03
	1.599772092271528e-03
	1.983646864486752e-01

 145	1.450000000000001e+00
	-7.489463690252115e-15
	-4.137595143280232e-16
	-3.731618247421445e-14
	2.511918955531545e-04
	3.388648782026934e-03
	1.633585447036025e-03
	1.983686973517371e-01

 146	1.460000000000001e+00
	-7.508949352672698e-15
	-4.302594543769564e-16
	-3.731799287582322e-14
	2.707672209635305e-04
	3.391105546302421e-03
	1.667431761829967e-03
	1.983727121364549e-01

 147	1.470000000000001e+00
	-7.528203132079514e-15
	-4.474846880318264e-16
	-3.731917364374592e-14
	2.917608699054696e-04
	3.391717411217679e-03
	1.701292668053080e-03
	1.983767286239228e-01

 148	1.480000000000001e+00
	-7.547206595336514e-15
	-4.654682649549251e-16
	-3.731973689580915e-14
	3.142091951740806e-04
	3.390483091654860e-03
	1.735149727483307e-03
	1.983807446270328e-01

 149	1.490000000000001e+00
	-7.565940823845490e-15
	-4.842446105213524e-16
	-3.731969433024126e-14
	3.381345948453790e-04
	3.387414495765050e-03
	1.768984554577248e-03
	1.983847579649985e-01

 150	1.500000000000001e+00
	-7.584386395542617e-15
	-5.038495582616910e-16
	-3.731905722368244e-14
	3.635434289884928e-04
	3.382538362735361e-03
	1.802778956739345e-03
	1.983887664799654e-01

 151	1.510000000000001e+00
	-7.602523368266108e-15
	-5.243203796128444e-16
	-3.731783642891257e-14
	3.904243738642132e-04
	3.375897443142189e-03
	1.836515088779026e-03
	1.983927680553576e-01

 152	1.520000000000001e+00
	-7.620331264747791e-15
	-5.456958104279364e-16
	-3.731604237230038e-14
	4.187473868864195e-04
	3.367551076590715e-03
	1.870175616239934e-03
	1.983967606352314e-01

 153	1.530000000000001e+00
	-7.637789059507697e-15
	-5.680160736410236e-16
	-3.731368505098219e-14