Title: ** sch_path: /home/andylithia/openmpw/project-yatsuhashi-chip1/xschem/gmid_test/nmos_test.sch
Date: Sun Jul 17 22:51:45  2022
Plotname: DC transfer characteristic
Flags: real
No. Variables: 8
No. Points: 181
Variables:
	0	v(v-sweep)	voltage
	1	@m.xm1.msky130_fd_pr__nfet_01v8[cgb]	capacitance
	2	@m.xm1.msky130_fd_pr__nfet_01v8[cgd]	capacitance
	3	@m.xm1.msky130_fd_pr__nfet_01v8[cgs]	capacitance
	4	@m.xm1.msky130_fd_pr__nfet_01v8[gds]	admittance
	5	@m.xm1.msky130_fd_pr__nfet_01v8[gm]	admittance
	6	i(@m.xm1.msky130_fd_pr__nfet_01v8[id])	current
	7	v(@m.xm1.msky130_fd_pr__nfet_01v8[vth])	voltage
Values:
 0	0.000000000000000e+00
	-8.310898812180229e-15
	-2.837122512450026e-18
	-1.343476550783045e-14
	5.921249889984636e-08
	1.956543646200093e-06
	2.348140029213677e-07
	2.429720453822611e-01

 1	1.000000000000000e-02
	-8.220422984173186e-15
	-2.916448023264356e-18
	-1.364350229065981e-14
	6.419166569725372e-08
	2.124743234075943e-06
	2.552088607652633e-07
	2.429720477146971e-01

 2	2.000000000000000e-02
	-8.130942699727652e-15
	-2.998003305109314e-18
	-1.385238886323036e-14
	6.957137663774727e-08
	2.307418474029291e-06
	2.773570685985930e-07
	2.429720502476595e-01

 3	3.000000000000000e-02
	-8.042480155188403e-15
	-3.081851733581070e-18
	-1.406134484983334e-14
	7.538175713399897e-08
	2.505851789692346e-06
	3.014096978860759e-07
	2.429720529984342e-01

 4	4.000000000000000e-02
	-7.955057121567452e-15
	-3.168058572713588e-18
	-1.427028979606931e-14
	8.165497016201564e-08
	2.721447504186170e-06
	3.275312436685896e-07
	2.429720559858305e-01

 5	5.000000000000000e-02
	-7.868694899776226e-15
	-3.256691037359546e-18
	-1.447914328131174e-14
	8.842533108195757e-08
	2.955744570550607e-06
	3.559009060804045e-07
	2.429720592303482e-01

 6	6.000000000000000e-02
	-7.783414277303503e-15
	-3.347818357904931e-18
	-1.468782503101955e-14
	9.572942684279498e-08
	3.210430706180597e-06
	3.867140060705734e-07
	2.429720627543294e-01

 7	7.000000000000001e-02
	-7.699235486449560e-15
	-3.441511847413747e-18
	-1.489625502858187e-14
	1.036062395733318e-07
	3.487358077301778e-06
	4.201835500884993e-07
	2.429720665821399e-01

 8	8.000000000000000e-02
	-7.616178164221230e-15
	-3.537844971302481e-18
	-1.510435362638107e-14
	1.120972745503800e-07
	3.788560690980495e-06
	4.565419600112065e-07
	2.429720707403632e-01

 9	9.000000000000000e-02
	-7.534261313986782e-15
	-3.636893419650024e-18
	-1.531204165576298e-14
	1.212466925230633e-07
	4.116273663723093e-06
	4.960429862223692e-07
	2.429720752580259e-01

 10	9.999999999999999e-02
	-7.453503268983049e-15
	-3.738735182251710e-18
	-1.551924053560809e-14
	1.311014463605678e-07
	4.472954547198665e-06
	5.389638235010887e-07
	2.429720801668411e-01

 11	1.100000000000000e-01
	-7.373921657760164e-15
	-3.843450626533189e-18
	-1.572587237920400e-14
	1.417114219793103e-07
	4.861306902800924e-06
	5.856074512398979e-07
	2.429720855014627e-01

 12	1.200000000000000e-01
	-7.295533371642603e-15
	-3.951122578441984e-18
	-1.593186009912478e-14
	1.531295834944246e-07
	5.284306327383776e-06
	6.363052214816988e-07
	2.429720912997981e-01

 13	1.300000000000000e-01
	-7.218354534276713e-15
	-4.061836406443904e-18
	-1.613712750983510e-14
	1.654121225301884e-07
	5.745229142265099e-06
	6.914197203385048e-07
	2.429720976033274e-01

 14	1.400000000000000e-01
	-7.142400473327586e-15
	-4.175680108753348e-18
	-1.634159942774413e-14
	1.786186116142551e-07
	6.247683966125313e-06
	7.513479305188865e-07
	2.429721044574665e-01

 15	1.500000000000000e-01
	-7.067685694379649e-15
	-4.292744403935520e-18
	-1.654520176844728e-14
	1.928121615717640e-07
	6.795646399332351e-06
	8.165247249330931e-07
	2.429721119119628e-01

 16	1.600000000000000e-01
	-6.994223857087245e-15
	-4.413122825022409e-18
	-1.674786164090504e-14
	2.080595828275899e-07
	7.393497052029082e-06
	8.874267236453602e-07
	2.429721200213490e-01

 17	1.700000000000000e-01
	-6.922027753612115e-15
	-4.536911817293875e-18
	-1.694950743832397e-14
	2.244315505184165e-07
	8.046063150505918e-06
	9.645765487793956e-07
	2.429721288454126e-01

 18	1.800000000000000e-01
	-6.851109289377038e-15
	-4.664210839878034e-18
	-1.715006892551632e-14
	2.420027733108349e-07
	8.758663955351300e-06
	1.048547514324548e-06
	2.429721384497506e-01

 19	1.900000000000000e-01
	-6.781479466155219e-15
	-4.795122471337261e-18
	-1.734947732253353e-14
	2.608521658178846e-07
	9.537160219999354e-06
	1.139968790104098e-06
	2.429721489063503e-01

 20	2.000000000000000e-01
	-6.713148367506881e-15
	-4.929752519409748e-18
	-1.754766538438263e-14
	2.810630245039480e-07
	1.038800790884822e-05
	1.239531081408404e-06
	2.429721602942374e-01

 21	2.100000000000000e-01
	-6.646125146565490e-15
	-5.068210135086019e-18
	-1.774456747665260e-14
	3.027232069671491e-07
	1.131831637935743e-05
	1.347992867917160e-06
	2.429721727001987e-01

 22	2.200000000000001e-01
	-6.580418016167530e-15
	-5.210607931209683e-18
	-1.794011964689549e-14
	3.259253144894871e-07
	1.233591121162520e-05
	1.466187247478666e-06
	2.429721862195612e-01

 23	2.300000000000001e-01
	-6.516034241311426e-15
	-5.357062105797500e-18
	-1.813425969162446e-14
	3.507668777476969e-07
	1.344940184102932e-05
	1.595029432013445e-06
	2.429722009570469e-01

 24	2.400000000000001e-01
	-6.452980133922818e-15
	-5.507692570286594e-18
	-1.832692721880944e-14
	3.773505455825573e-07
	1.466825411369466e-05
	1.735524944190903e-06
	2.429722170277210e-01

 25	2.500000000000001e-01
	-6.391261049895249e-15
	-5.662623082923402e-18
	-1.851806370577035e-14
	4.057842767313254e-07
	1.600286783990726e-05
	1.888778564507844e-06
	2.429722345580040e-01

 26	2.600000000000001e-01
	-6.330881388368425e-15
	-5.821981387520832e-18
	-1.870761255238505e-14
	4.361815344366312e-07
	1.746465936618406e-05
	2.056004078881147e-06
	2.429722536868017e-01

 27	2.700000000000001e-01
	-6.271844593197413e-15
	-5.985899357822489e-18
	-1.889551912954992e-14
	4.686614838564850e-07
	1.906614912164099e-05
	2.238534876755441e-06
	2.429722745667035e-01

 28	2.800000000000001e-01
	-6.214153156560699e-15
	-6.154513147718724e-18
	-1.908173082284759e-14
	5.033491922131693e-07
	2.082105401767191e-05
	2.437835448904198e-06
	2.429722973653184e-01

 29	2.900000000000001e-01
	-6.157808624647147e-15
	-6.327963347579849e-18
	-1.926619707139663e-14
	5.403758316348480e-07
	2.274438449099064e-05
	2.655513832455272e-06
	2.429723222666776e-01

 30	3.000000000000001e-01
	-6.102811605356674e-15
	-6.506395146975169e-18
	-1.944886940187422e-14
	5.798788846615578e-07
	2.485254587804741e-05
	2.893335048065375e-06
	2.429723494727936e-01

 31	3.100000000000001e-01
	-6.049161777942893e-15
	-6.689958504067760e-18
	-1.962970145772257e-14
	6.220023524085356e-07
	2.716344369321165e-05
	3.153235570477018e-06
	2.429723792053048e-01

 32	3.200000000000001e-01
	-5.996857904521455e-15
	-6.878808321982542e-18
	-1.980864902356533e-14
	6.668969654031625e-07
	2.969659225348817e-05
	3.437338868769360e-06
	2.429724117072648e-01

 33	3.300000000000001e-01
	-5.945897843362510e-15
	-7.073104632465608e-18
	-1.998567004487819e-14
	7.147203971385983e-07
	3.247322594882843e-05
	3.747972046327718e-06
	2.429724472450444e-01

 34	3.400000000000001e-01
	-5.896278563881776e-15
	-7.273012787162885e-18
	-2.016072464297316e-14
	7.656374804168675e-07
	3.551641229944529e-05
	4.087683602759483e-06
	2.429724861103630e-01

 35	3.500000000000001e-01
	-5.847996163240675e-15
	-7.478703656867401e-18
	-2.033377512537149e-14
	8.198204265873277e-07
	3.885116577047852e-05
	4.459262330542405e-06
	2.429725286224562e-01

 36	3.600000000000002e-01
	-5.801045884463355e-15
	-7.690353839096061e-18
	-2.050478599165428e-14
	8.774490478233442e-07
	4.250456113082594e-05
	4.865757347974331e-06
	2.429725751303786e-01

 37	3.700000000000002e-01
	-5.755422135974603e-15
	-7.908145874382579e-18
	-2.067372393489504e-14
	9.387109826209066e-07
	4.650584494836207e-05
	5.310499256883200e-06
	2.429726260154170e-01

 38	3.800000000000002e-01
	-5.711118512461796e-15
	-8.132268471683051e-18
	-2.084055783878869e-14
	1.003801924748017e-06
	5.088654361005763e-05
	5.797122398449672e-06
	2.429726816936429e-01

 39	3.900000000000002e-01
	-5.668127816961502e-15
	-8.362916743317717e-18
	-2.100525877060515e-14
	1.072925855923624e-06
	5.568056604525928e-05
	6.329588163315962e-06
	2.429727426185919e-01

 40	4.000000000000002e-01
	-5.626442084070135e-15
	-8.600292449890999e-18
	-2.116779997010654e-14
	1.146295282560270e-06
	6.092429911678255e-05
	6.912209292852576e-06
	2.429728092840371e-01

 41	4.100000000000002e-01
	-5.586052604178071e-15
	-8.844604255652743e-18
	-2.132815683457521e-14
	1.224131476964871e-06
	6.665669343138894e-05
	7.549675087011521e-06
	2.429728822268815e-01

 42	4.200000000000002e-01
	-5.546949948625915e-15
	-9.096067994788074e-18
	-2.148630690011017e-14
	1.306664723459262e-06
	7.291933711331395e-05
	8.247077410644329e-06
	2.429729620301467e-01

 43	4.300000000000002e-01
	-5.509123995681595e-15
	-9.354906949148862e-18
	-2.164222981935726e-14
	1.394134569955398e-06
	7.975651488713117e-05
	9.009937364580773e-06
	2.429730493260128e-01

 44	4.400000000000002e-01
	-5.472563957238756e-15
	-9.621352137962066e-18
	-2.179590733584336e-14
	1.486790085600276e-06
	8.721524963543245e-05
	9.844232460280691e-06
	2.429731447989512e-01

 45	4.500000000000002e-01
	-5.437258406136626e-15
	-9.895642620080663e-18
	-2.194732325509342e-14
	1.584890125193897e-06
	9.534532343945590e-05
	1.075642410769933e-05
	2.429732491888554e-01

 46	4.600000000000002e-01
	-5.403195304004255e-15
	-1.017802580936904e-17
	-2.209646341271110e-14
	1.688703601178879e-06
	1.041992749841907e-04
	1.175348519539960e-05
	2.429733632942120e-01

 47	4.700000000000003e-01
	-5.370362029533265e-15
	-1.046875780384380e-17
	-2.224331563960912e-14
	1.798509764104453e-06
	1.138323701217299e-04
	1.284292751026920e-05
	2.429734879752429e-01

 48	4.800000000000003e-01
	-5.338745407085559e-15
	-1.076810372922559e-17
	-2.238786972457799e-14
	1.914598492579799e-06
	1.243025423459720e-04
	1.403282871187390e-05
	2.429736241569901e-01

 49	4.900000000000003e-01
	-5.308331735545099e-15
	-1.107633809758633e-17
	-2.253011737438283e-14
	2.037270593852134e-06
	1.356702999468299e-04
	1.533185854402070e-05
	2.429737728323167e-01

 50	5.000000000000002e-01
	-5.279106817325885e-15
	-1.139374518181069e-17
	-2.267005217157920e-14
	2.166838116273801e-06
	1.479985966914394e-04
	1.674930393411780e-05
	2.429739350647878e-01

 51	5.100000000000002e-01
	-5.251055987450639e-15
	-1.172061940663251e-17
	-2.280766953023937e-14
	2.303624675059509e-06
	1.613526630318153e-04
	1.829509260008973e-05
	2.429741119913668e-01

 52	5.200000000000002e-01
	-5.224164142618984e-15
	-1.205726575703483e-17
	-2.294296664977866e-14
	2.447965792878451e-06
	1.757997950706796e-04
	1.997981475569771e-05
	2.429743048249017e-01

 53	5.300000000000002e-01
	-5.198415770186583e-15
	-1.240400020485251e-17
	-2.307594246707026e-14
	2.600209256975992e-06
	1.914090988366211e-04
	2.181474247897169e-05
	2.429745148563355e-01

 54	5.400000000000003e-01
	-5.173794976980947e-15
	-1.276115015444857e-17
	-2.320659760703463e-14
	2.760715494674399e-06
	2.082511878319336e-04
	2.381184628598553e-05
	2.429747434566047e-01

 55	5.500000000000003e-01
	-5.150285517883077e-15
	-1.312905490838517e-17
	-2.333493433188619e-14
	2.929857969259533e-06
	2.263978323251683e-04
	2.598380843434387e-05
	2.429749920781575e-01

 56	5.600000000000003e-01
	-5.127870824108215e-15
	-1.350806615405612e-17
	-2.346095648921635e-14
	3.108023598418727e-06
	2.459215594674969e-04
	2.834403246848539e-05
	2.429752622560380e-01

 57	5.700000000000003e-01
	-5.106534031123001e-15
	-1.389854847229114e-17
	-2.358466945908776e-14
	3.295613197550799e-06
	2.668952040165538e-04
	3.090664851321232e-05
	2.429755556084810e-01

 58	5.800000000000003e-01
	-5.086258006140334e-15
	-1.430087986899700e-17
	-2.370608010030915e-14
	3.493041950420134e-06
	2.893914102500526e-04
	3.368651382371117e-05
	2.429758738369727e-01

 59	5.900000000000003e-01
	-5.067025375137335e-15
	-1.471545233095254e-17
	-2.382519669605575e-14
	3.700739909767968e-06
	3.134820865371764e-04
	3.669920811062215e-05
	2.429762187257046e-01

 60	6.000000000000003e-01
	-5.048818549346023e-15
	-1.514267240693208e-17
	-2.394202889899346e-14
	3.919152530622699e-06
	3.392378149983996e-04
	3.996102317828942e-05
	2.429765921403692e-01

 61	6.100000000000003e-01
	-5.031619751170287e-15
	-1.558296181538711e-17
	-2.405658767605949e-14
	4.148741239161030e-06
	3.667272197099046e-04
	4.348894644385899e-05
	2.429769960262637e-01

 62	6.200000000000003e-01
	-5.015411039486925e-15
	-1.603675807997843e-17
	-2.416888525304549e-14
	4.389984040060489e-06
	3.960162979796681e-04
	4.730063794495795e-05
	2.429774324056525e-01

 63	6.300000000000003e-01
	-5.000174334292406e-15
	-1.650451519432512e-17
	-2.427893505912228e-14
	4.643376165344500e-06
	4.271677203171751e-04
	5.141440049461100e-05
	2.429779033743241e-01

 64	6.400000000000003e-01
	-4.985891440661110e-15
	-1.698670431738930e-17
	-2.438675167143869e-14
	4.909430767749684e-06
	4.602401058128775e-04
	5.584914270395026e-05
	2.429784110973514e-01

 65	6.500000000000004e-01
	-4.972544071984450e-15
	-1.748381450100169e-17
	-2.449235075991989e-14
	5.188679661637239e-06
	4.952872807093598e-04
	6.062433466601386e-05
	2.429789578040068e-01

 66	6.600000000000004e-01
	-4.960113872464167e-15
	-1.799635345110534e-17
	-2.459574903238317e-14
	5.481674114421990e-06
	5.323575289534403e-04
	6.575995617706795e-05
	2.429795457818230e-01

 67	6.700000000000004e-01
	-4.948582438836635e-15
	-1.852484832437500e-17
	-2.469696418008232e-14
	5.788985691399580e-06
	5.714928444351912e-04
	7.127643746465678e-05
	2.429801773697871e-01

 68	6.800000000000004e-01
	-4.937931341308751e-15
	-1.906984656195126e-17
	-2.479601482378383e-14
	6.111207156713336e-06
	6.127281954135454e-04
	7.719459249293368e-05
	2.429808549507068e-01

 69	6.900000000000004e-01
	-4.928142143688714e-15
	-1.963191676213023e-17
	-2.489292046047247e-14
	6.448953433016860e-06
	6.560908122663661e-04
	8.353554502435097e-05
	2.429815809427378e-01

 70	7.000000000000004e-01
	-4.919196422699087e-15
	-2.021164959393191e-17
	-2.498770141077437e-14
	6.802862622155181e-06
	7.015995101544914e-04
	9.032064773074613e-05
	2.429823577901103e-01

 71	7.100000000000004e-01
	-4.911075786461888e-15
	-2.080965875357857e-17
	-2.508037876718115e-14
	7.173597088910485e-06
	7.492640584261912e-04
	9.757139476425295e-05
	2.429831879531291e-01

 72	7.200000000000004e-01
	-4.903761892148560e-15
	-2.142658196602390e-17
	-2.517097434315020e-14
	7.561844609542644e-06
	7.990846085864872e-04
	1.053093283170244e-04
	2.429840738974643e-01

 73	7.300000000000004e-01
	-4.897236462790768e-15
	-2.206308203377639e-17
	-2.525951062314997e-14
	7.968319586504739e-06
	8.510511923956704e-04
	1.135559398159338e-04
	2.429850180828573e-01

 74	7.400000000000004e-01
	-4.891481303249735e-15
	-2.271984793539591e-17
	-2.534601071371326e-14
	8.393764330341637e-06
	9.051433011308499e-04
	1.223325665116348e-04
	2.429860229512774e-01

 75	7.500000000000004e-01
	-4.886478315345318e-15
	-2.339759597615206e-17
	-2.543049829555389e-14
	8.838950409392993e-06
	9.613295562379884e-04
	1.316602843277831e-04
	2.429870909146711e-01

 76	7.600000000000005e-01
	-4.882209512147228e-15
	-2.409707099348210e-17
	-2.551299757679770e-14
	9.304680067537923e-06
	1.019567480523117e-03
	1.415597979331907e-04
	2.429882243423793e-01

 77	7.700000000000005e-01
	-4.878657031433547e-15
	-2.481904762001835e-17
	-2.559353324737188e-14
	9.791787709848626e-06
	1.079803377691731e-03
	1.520513290844272e-04
	2.429894255483809e-01

 78	7.800000000000005e-01
	-4.875803148323450e-15
	-2.556433160711251e-17
	-2.567213043459125e-14
	1.030114145568553e-05
	1.141972326465985e-03
	1.631545043564978e-04
	2.429906967784381e-01

 79	7.900000000000005e-01
	-4.873630287092780e-15
	-2.633376121193564e-17
	-2.574881465997544e-14
	1.083364475847963e-05
	1.205998293719257e-03
	1.748882434323376e-04
	2.429920401973317e-01

 80	8.000000000000005e-01
	-4.872121032182611e-15
	-2.712820865140555e-17
	-2.582361179732508e-14
	1.139023809123234e-05
	1.271794369105034e-03
	1.872706491561591e-04
	2.429934578762915e-01

 81	8.100000000000005e-01
	-4.871258138412707e-15
	-2.794858162637340e-17
	-2.589654803208090e-14
	1.197190069663556e-05
	1.339263121566904e-03
	2.003189005696383e-04
	2.429949517807589e-01

 82	8.200000000000005e-01
	-4.871024540412862e-15
	-2.879582491967916e-17
	-2.596764982198455e-14
	1.257965240068979e-05
	1.408297075948941e-03
	2.140491501424379e-04
	2.429965237586345e-01

 83	8.300000000000005e-01
	-4.871403361286322e-15
	-2.967092207188748e-17
	-2.603694385905646e-14
	1.321455548879713e-05
	1.478779305737010e-03
	2.284764263792953e-04
	2.429981755291525e-01

 84	8.400000000000005e-01
	-4.872377920520601e-15
	-3.057489713873008e-17
	-2.610445703290082e-14
	1.387771664354085e-05
	1.550584135808608e-03
	2.436145429348564e-04
	2.429999086724668e-01

 85	8.500000000000005e-01
	-4.873931741162066e-15
	-3.150881653447936e-17
	-2.617021639534493e-14
	1.457028894373941e-05
	1.623577947009346e-03
	2.594760152951954e-04
	2.430017246201430e-01

 86	8.600000000000005e-01
	-4.876048556270993e-15
	-3.247379096573724e-17
	-2.623424912641607e-14
	1.529347392490115e-05
	1.697620072465509e-03
	2.760719859930294e-04
	2.430036246465823e-01

 87	8.700000000000006e-01
	-4.878712314674935e-15
	-3.347097746032682e-17
	-2.629658250165567e-14
	1.604852370189151e-05
	1.772563773834882e-03
	2.934121592134097e-04
	2.430056098615548e-01

 88	8.800000000000006e-01
	-4.881907186038753e-15
	-3.450158149626780e-17
	-2.635724386076705e-14
	1.683674315547707e-05
	1.848257284240509e-03
	3.115047455208445e-04
	2.430076812038669e-01

 89	8.900000000000006e-01
	-4.885617565269741e-15
	-3.556685923604833e-17
	-2.641626057759029e-14
	1.765949218540769e-05
	1.924544903461720e-03
	3.303564172997529e-04
	2.430098394362570e-01

 90	9.000000000000006e-01
	-4.889828076277089e-15
	-3.666811987170369e-17
	-2.647366003139499e-14
	1.851818803383998e-05
	2.001268130104040e-03
	3.499722753510588e-04
	2.430120851415755e-01

 91	9.100000000000006e-01
	-4.894523575104873e-15
	-3.780672808649413e-17
	-2.652946957947834e-14
	1.941430768417789e-05
	2.078266814954639e-03
	3.703558269319591e-04
	2.430144187202630e-01

 92	9.200000000000006e-01
	-4.899689152457930e-15
	-3.898410663928976e-17
	-2.658371653105395e-14
	2.034939034178752e-05
	2.155380319560918e-03
	3.915089753666969e-04
	2.430168403891554e-01

 93	9.300000000000006e-01
	-4.905310135640262e-15
	-4.020173907806968e-17
	-2.663642812241418e-14
	2.132504000451755e-05
	2.232448664245751e-03
	4.134320211971766e-04
	2.430193501816158e-01

 94	9.400000000000006e-01
	-4.911372089925250e-15
	-4.146117258929830e-17
	-2.668763149334671e-14
	2.234292813250184e-05
	2.309313650281036e-03
	4.361236746868001e-04
	2.430219479489507e-01

 95	9.500000000000006e-01
	-4.917860819377099e-15
	-4.276402099026707e-17
	-2.673735366478345e-14
	2.340479642830526e-05
	2.385819941759162e-03
	4.595810793421192e-04
	2.430246333631094e-01

 96	9.600000000000006e-01
	-4.924762367142587e-15
	-4.411196787187620e-17
	-2.678562151765876e-14
	2.451245974008502e-05
	2.461816093799537e-03
	4.837998459779206e-04
	2.430274059205701e-01

 97	9.700000000000006e-01
	-4.932063015231991e-15
	-4.550676989967942e-17
	-2.683246177295147e-14
	2.566780910204078e-05
	2.537155515065412e-03
	5.087740967245741e-04
	2.430302649473745e-01

 98	9.800000000000006e-01
	-4.939749283807740e-15
	-4.695026028143602e-17
	-2.687790097288353e-14
	2.687281492800198e-05
	2.611697354101723e-03
	5.344965182642014e-04
	2.430332096052245e-01

 99	9.900000000000007e-01
	-4.947807929998743e-15
	-4.844435240980257e-17
	-2.692196546324748e-14
	2.812953037552805e-05
	2.685307300689760e-03
	5.609584234861649e-04
	2.430362388985306e-01

 100	1.000000000000001e+00
	-4.956225946258402e-15
	-4.999104368923383e-17
	-2.696468137683191e-14
	2.944009489935146e-05
	2.757858295199339e-03
	5.881498206736605e-04
	2.430393516823403e-01

 101	1.010000000000001e+00
	-4.964990558282678e-15
	-5.159241955659787e-17
	-2.700607461791523e-14
	3.080673801437234e-05
	2.829231140754960e-03
	6.160594892727862e-04
	2.430425466710029e-01

 102	1.020000000000001e+00
	-4.974089222505601e-15
	-5.325065770546451e-17
	-2.704617084779432e-14
	3.223178328968683e-05
	2.899315014870110e-03
	6.446750612532760e-04
	2.430458224474930e-01

 103	1.030000000000001e+00
	-4.983509623187425e-15
	-5.496803252450950e-17
	-2.708499547131591e-14
	3.371765259631199e-05
	2.968007878999749e-03
	6.739831070462676e-04
	2.430491774732451e-01

 104	1.040000000000001e+00
	-4.993239669110826e-15
	-5.674691976095081e-17
	-2.712257362437675e-14
	3.526687063233696e-05
	3.035216786173717e-03
	7.039692250380841e-04
	2.430526100984080e-01

 105	1.050000000000001e+00
	-5.003267489899677e-15
	-5.858980142045205e-17
	-2.715893016235801e-14
	3.688206975019433e-05
	3.100858088469105e-03
	7.346181336092180e-04
	2.430561185723805e-01

 106	1.060000000000001e+00
	-5.013581431974127e-15
	-6.049927091543168e-17
	-2.719408964945886e-14
	3.856599511160428e-05
	3.164857547528032e-03
	7.659137647330437e-04
	2.430597010545333e-01

 107	1.070000000000001e+00
	-5.024170054154541e-15
	-6.247803847426505e-17
	-2.722807634889477e-14
	4.032151019651143e-05
	3.227150352607264e-03
	7.978393581878369e-04
	2.430633556249971e-01

 108	1.080000000000001e+00
	-5.035022122926989e-15
	-6.452893682439463e-17
	-2.726091421392392e-14
	4.215160269300575e-05
	3.287681051741165e-03
	8.303775554863768e-04
	2.430670802954222e-01

 109	1.090000000000001e+00
	-5.046126607381041e-15
	-6.665492716293036e-17
	-2.729262687966712e-14
	4.405939079582499e-05
	3.346403402501400e-03
	8.635104926882448e-04
	2.430708730196117e-01

 110	1.100000000000001e+00
	-5.057472673830546e-15
	-6.885910542888993e-17
	-2.732323765568501e-14
	4.604812994157077e-05
	3.403280149541981e-03
	8.972198913285946e-04
	2.430747317039322e-01

 111	1.110000000000001e+00
	-5.069049680126819e-15
	-7.114470889178652e-17
	-2.735276951927747e-14
	4.812122000925484e-05
	3.458282736629366e-03
	9.314871467718967e-04
	2.430786542174318e-01

 112	1.120000000000001e+00
	-5.080847169672988e-15
	-7.351512307186640e-17
	-2.738124510946991e-14
	5.028221301523233e-05
	3.511390961182023e-03
	9.662934133779382e-04
	2.430826384016025e-01

 113	1.130000000000001e+00
	-5.092854865147173e-15
	-7.597388900786827e-17
	-2.740868672165139e-14
	5.253482133200120e-05
	3.562592579494210e-03
	1.001619685948677e-03
	2.430866820796942e-01

 114	1.140000000000001e+00
	-5.105062661941711e-15
	-7.852471088874099e-17
	-2.743511630283002e-14
	5.488292646071910e-05
	3.611882870807624e-03
	1.037446877006050e-03
	2.430907830655800e-01

 115	1.150000000000001e+00
	-5.117460621323940e-15
	-8.117146406635142e-17
	-2.746055544747201e-14
	5.733058838767527e-05
	3.659264168242587e-03
	1.073755889532041e-03
	2.430949391720781e-01

 116	1.160000000000001e+00
	-5.130038963324265e-15
	-8.391820346675442e-17
	-2.748502539389013e-14
	5.988205555529026e-05
	3.704745364322626e-03
	1.110527684880802e-03
	2.430991482187252e-01

 117	1.170000000000001e+00
	-5.142788059355697e-15
	-8.676917241810638e-17
	-2.750854702114908e-14
	6.254177547853769e-05
	3.748341398445107e-03
	1.147743345648000e-03
	2.431034080389921e-01

 118	1.180000000000001e+00
	-5.155698424567992e-15
	-8.972881191389402e-17
	-2.753114084645540e-14
	6.531440603798693e-05
	3.790072733185426e-03
	1.185384133353878e-03
	2.431077164868674e-01

 119	1.190000000000001e+00
	-5.168760709939803e-15
	-9.280177033052105e-17
	-2.755282702300019e-14
	6.820482748086717e-05
	3.829964825790174e-03
	1.223431540862199e-03
	2.431120714428743e-01

 120	1.200000000000001e+00
	-5.181965694110279e-15
	-9.599291361882593e-17
	-2.757362533822337e-14
	7.121815516173353e-05
	3.868047600638242e-03
	1.261867339518096e-03
	2.431164708194634e-01

 121	1.210000000000001e+00
	-5.195304274951529e-15
	-9.930733598943047e-17
	-2.759355521246977e-14
	7.435975305434666e-05
	3.904354927841308e-03
	1.300673621042282e-03
	2.431209125658086e-01

 122	1.220000000000001e+00
	-5.208767460882415e-15
	-1.027503711121383e-16
	-2.761263569800735e-14
	7.763524806626235e-05
	3.938924112534304e-03
	1.339832834267410e-03
	2.431253946720103e-01

 123	1.230000000000001e+00
	-5.222346361923794e-15
	-1.063276038498517e-16
	-2.763088547837819e-14
	8.105054518731220e-05
	3.971795398785383e-03
	1.379327816844676e-03
	2.431299151727301e-01

 124	1.240000000000001e+00
	-5.236032180494316e-15
	-1.100448825476028e-16
	-2.764832286805515e-14
	8.461184350257762e-05
	4.003011491445905e-03
	1.419141822084798e-03
	2.431344721502586e-01

 125	1.250000000000001e+00
	-5.249816201945638e-15
	-1.139083318973228e-16
	-2.766496581237631e-14
	8.832565309951440e-05
	4.032617098673008e-03
	1.459258541127462e-03
	2.431390637370526e-01

 126	1.260000000000001e+00
	-5.263689784835568e-15
	-1.179243663988465e-16
	-2.768083188773077e-14
	9.219881289753318e-05
	4.060658497299773e-03
	1.499662120657786e-03
	2.431436881177647e-01

 127	1.270000000000001e+00
	-5.277644350937101e-15
	-1.220997044374200e-16
	-2.769593830196998e-14
	9.623850942643797e-05
	4.087183122706353e-03
	1.540337176407226e-03
	2.431483435307873e-01

 128	1.280000000000001e+00
	-5.291671374981091e-15
	-1.264413829974978e-16
	-2.771030189501962e-14
	1.004522965775692e-04
	4.112239184364370e-03
	1.581268802690350e-03
	2.431530282693380e-01

 129	1.290000000000001e+00
	-5.305762374130166e-15
	-1.309567730319661e-16
	-2.772393913966771e-14
	1.048481163481447e-04
	4.135875307789604e-03
	1.622442578238221e-03
	2.431577406821303e-01

 130	1.300000000000001e+00
	-5.319908897181769e-15
	-1.356535955050555e-16
	-2.773686614250483e-14
	1.094343205949888e-04
	4.158140203246566e-03
	1.663844568594418e-03
	2.431624791736518e-01

 131	1.310000000000001e+00
	-5.334102513497496e-15
	-1.405399381260299e-16
	-2.774909864499429e-14
	1.142196938084174e-04
	4.179082361203177e-03
	1.705461325341380e-03
	2.431672422040581e-01

 132	1.320000000000001e+00
	-5.348334801657416e-15
	-1.456242727892192e-16
	-2.776065202464893e-14
	1.192134769102291e-04
	4.198749774233207e-03
	1.747279882422839e-03
	2.431720282887709e-01

 133	1.330000000000001e+00
	-5.362597337836992e-15
	-1.509154737342104e-16
	-2.777154129629389e-14
	1.244253920714654e-04
	4.217189684810266e-03
	1.789287749824175e-03
	2.431768359977340e-01

 134	1.340000000000001e+00
	-5.376881683906403e-15
	-1.564228364376913e-16
	-2.778178111339361e-14
	1.298656685353579e-04
	4.234448358223032e-03
	1.831472904865265e-03
	2.431816639544284e-01

 135	1.350000000000001e+00
	-5.391179375251444e-15
	-1.621560972458200e-16
	-2.779138576942319e-14
	1.355450694186311e-04
	4.250570879670519e-03
	1.873823781352271e-03
	2.431865108346209e-01

 136	1.360000000000001e+00
	-5.405481908317448e-15
	-1.681254537527889e-16
	-2.780036919926416e-14
	1.414749194495429e-04
	4.265600974460763e-03
	1.916329256824301e-03
	2.431913753649086e-01

 137	1.370000000000001e+00
	-5.419780727878126e-15
	-1.743415859274999e-16
	-2.780874498060574e-14
	1.476671335835014e-04
	4.279580850137181e-03
	1.958978638119775e-03
	2.431962563210602e-01

 138	1.380000000000001e+00
	-5.434067214033351e-15
	-1.808156779858961e-16
	-2.781652633533316e-14
	1.541342464163234e-04
	4.292551059288613e-03
	2.001761645475112e-03
	2.432011525261972e-01

 139	1.390000000000001e+00
	-5.448332668941674e-15
	-1.875594410014282e-16
	-2.782372613088533e-14
	1.608894422907990e-04
	4.304550381760078e-03
	2.044668395355674e-03
	2.432060628488265e-01

 140	1.400000000000001e+00
	-5.462568303295568e-15
	-1.945851362402946e-16
	-2.783035688156477e-14
	1.679465859637308e-04
	4.315615724968106e-03
	2.087689382206100e-03
	2.432109862007525e-01

 141	1.410000000000001e+00
	-5.476765222550041e-15
	-2.019055992014166e-16
	-2.783643074978373e-14
	1.753202536675066e-04
	4.325782041034145e-03
	2.130815459294139e-03
	2.432159215348770e-01

 142	1.420000000000001e+00
	-5.490914412918866e-15
	-2.095342643334604e-16
	-2.784195954723027e-14
	1.830257643620206e-04
	4.335082259479510e-03
	2.174037818809347e-03
	2.432208678429277e-01

 143	1.430000000000001e+00
	-5.505006727155056e-15
	-2.174851903926487e-16
	-2.784695473594057e-14
	1.910792109288911e-04
	4.343547234273402e-03
	2.217347971365883e-03
	2.432258241531055e-01

 144	1.440000000000001e+00
	-5.519032870137751e-15
	-2.257730863952927e-16
	-2.785142742926243e-14
	1.994974910097386e-04
	4.351205704088578e-03
	2.260737725046589e-03
	2.432307895276918e-01

 145	1.450000000000001e+00
	-5.532983384290721e-15
	-2.344133381081236e-16
	-2.785538839269776e-14
	2.082983371334721e-04
	4.358084264696328e-03
	2.304199164114870e-03
	2.432357630606000e-01

 146	1.460000000000001e+00
	-5.546848634864202e-15
	-2.434220350071730e-16
	-2.785884804461185e-14
	2.175003457132268e-04
	4.364207352520135e-03
	2.347724627510134e-03
	2.432407438749208e-01

 147	1.470000000000001e+00
	-5.560618795116692e-15
	-2.528159976224070e-16
	-2.786181645679808e-14
	2.271230044217905e-04
	4.369597238465904e-03
	2.391306687233825e-03
	2.432457311204531e-01

 148	1.480000000000001e+00
	-5.574283831439651e-15
	-2.626128051702545e-16
	-2.786430335488920e-14
	2.371867173742511e-04
	4.374274031252958e-03
	2.434938126724484e-03
	2.432507239712090e-01

 149	1.490000000000001e+00
	-5.587833488476386e-15
	-2.728308233593114e-16
	-2.786631811860597e-14
	2.477128274581745e-04
	4.378255689582307e-03
	2.478611919312971e-03
	2.432557216229719e-01

 150	1.500000000000001e+00
	-5.601257274292390e-15
	-2.834892322364757e-16
	-2.786786978183693e-14
	2.587236350550218e-04
	4.381558042598787e-03
	2.522321206843475e-03
	2.432607232908329e-01

 151	1.510000000000001e+00
	-5.614544445664788e-15
	-2.946080539204275e-16
	-2.786896703254376e-14
	2.702424122914995e-04
	4.384194818225324e-03
	2.566059278540611e-03
	2.432657282067734e-01

 152	1.520000000000001e+00
	-5.627683993566982e-15
	-3.062081800477043e-16
	-2.786961821248878e-14
	2.822934118472013e-04
	4.386177679073922e-03
	2.609819550199503e-03
	2.432707356172931e-01

 153	1.530000000000001e+00
	-5.640664628934849e-15
	-3.183113987329172e-16
	-2.786983131678342e-14