Title: ** sch_path: /home/andylithia/openmpw/project-yatsuhashi-chip1/xschem/gmid_test/nmos_test.sch
Date: Tue Jul 19 23:15:45  2022
Plotname: DC transfer characteristic
Flags: real
No. Variables: 8
No. Points: 181
Variables:
	0	v(v-sweep)	voltage
	1	@m.xm1.msky130_fd_pr__nfet_01v8[cgb]	capacitance
	2	@m.xm1.msky130_fd_pr__nfet_01v8[cgd]	capacitance
	3	@m.xm1.msky130_fd_pr__nfet_01v8[cgs]	capacitance
	4	@m.xm1.msky130_fd_pr__nfet_01v8[gds]	admittance
	5	@m.xm1.msky130_fd_pr__nfet_01v8[gm]	admittance
	6	i(@m.xm1.msky130_fd_pr__nfet_01v8[id])	current
	7	v(@m.xm1.msky130_fd_pr__nfet_01v8[vth])	voltage
Values:
 0	0.000000000000000e+00
	-8.963273769061678e-15
	-5.532625619909980e-19
	-1.573204617577961e-14
	4.862502343869850e-08
	1.908724133602828e-06
	2.374871761457437e-07
	2.184138085229954e-01

 1	1.000000000000000e-02
	-8.865577126595589e-15
	-5.665863790474489e-19
	-1.596025595456257e-14
	5.255506334308844e-08
	2.066332021086609e-06
	2.573520506426497e-07
	2.184138100287960e-01

 2	2.000000000000000e-02
	-8.769053036903144e-15
	-5.802033083592388e-19
	-1.618836752871072e-14
	5.678746955555825e-08
	2.236929394930525e-06
	2.788570719857618e-07
	2.184138116600248e-01

 3	3.000000000000000e-02
	-8.673723204034457e-15
	-5.941188552627525e-19
	-1.641629770422923e-14
	6.134381566248079e-08
	2.421615433898804e-06
	3.021375513419835e-07
	2.184138134272075e-01

 4	4.000000000000000e-02
	-8.579608783301614e-15
	-6.083386087503599e-19
	-1.664396352525424e-14
	6.624703820199227e-08
	2.621588949414961e-06
	3.273402819120958e-07
	2.184138153417863e-01

 5	5.000000000000000e-02
	-8.486730340334750e-15
	-6.228682427988212e-19
	-1.687128238292585e-14
	7.152150565860682e-08
	2.838158282611803e-06
	3.546245839110303e-07
	2.184138174162142e-01

 6	6.000000000000000e-02
	-8.395107811830864e-15
	-6.377135177423761e-19
	-1.709817212331417e-14
	7.719308942002519e-08
	3.072752231259659e-06
	3.841634535860270e-07
	2.184138196640543e-01

 7	7.000000000000001e-02
	-8.304760468084232e-15
	-6.528802816924108e-19
	-1.732455115411424e-14
	8.328923662110723e-08
	3.326932105615033e-06
	4.161448270606627e-07
	2.184138221000726e-01

 8	8.000000000000000e-02
	-8.215706877381646e-15
	-6.683744720049930e-19
	-1.755033854982877e-14
	8.983904478695212e-08
	3.602405018957595e-06
	4.507729708165819e-07
	2.184138247403726e-01

 9	9.000000000000000e-02
	-8.127964872338510e-15
	-6.842021167980494e-19
	-1.777545415516684e-14
	9.687333817357738e-08
	3.901038525210736e-06
	4.882700117159108e-07
	2.184138276025125e-01

 10	9.999999999999999e-02
	-8.041551518245534e-15
	-7.003693365195747e-19
	-1.799981868639102e-14
	1.044247456906113e-07
	4.224876722436513e-06
	5.288776206230398e-07
	2.184138307056637e-01

 11	1.100000000000000e-01
	-7.956483083488501e-15
	-7.168823455688666e-19
	-1.822335383035624e-14
	1.125277802760116e-07
	4.576157947019370e-06
	5.728588649031167e-07
	2.184138340707611e-01

 12	1.200000000000000e-01
	-7.872775012095984e-15
	-7.337474539718692e-19
	-1.844598234099195e-14
	1.212189195777947e-07
	4.957334188822149e-06
	6.205002463500728e-07
	2.184138377206863e-01

 13	1.300000000000000e-01
	-7.790441898462617e-15
	-7.509710691126569e-19
	-1.866762813299043e-14
	1.305366877824517e-07
	5.371092362322868e-06
	6.721139424243301e-07
	2.184138416804603e-01

 14	1.400000000000000e-01
	-7.709497464287596e-15
	-7.685596975225764e-19
	-1.888821637247547e-14
	1.405217384138134e-07
	5.820377572486037e-06
	7.280402700494990e-07
	2.184138459774651e-01

 15	1.500000000000000e-01
	-7.629954537760007e-15
	-7.865199467286300e-19
	-1.910767356443847e-14
	1.512169379099470e-07
	6.308418516641077e-06
	7.886503926186819e-07
	2.184138506416840e-01

 16	1.600000000000000e-01
	-7.551825035014863e-15
	-8.048585271627170e-19
	-1.932592763674273e-14
	1.626674497689053e-07
	6.838755164639006e-06
	8.543492922795461e-07
	2.184138557059684e-01

 17	1.700000000000000e-01
	-7.475119943875760e-15
	-8.235822541335851e-19
	-1.954290802050953e-14
	1.749208190370646e-07
	7.415268858727205e-06
	9.255790309872584e-07
	2.184138612063344e-01

 18	1.800000000000000e-01
	-7.399849309891540e-15
	-8.426980498630239e-19
	-1.975854572671664e-14
	1.880270568962097e-07
	8.042214971570722e-06
	1.002822325215264e-06
	2.184138671822811e-01

 19	1.900000000000000e-01
	-7.326022224667323e-15
	-8.622129455879027e-19
	-1.997277341885260e-14
	2.020387250874606e-07
	8.724258255278872e-06
	1.086606460571810e-06
	2.184138736771627e-01

 20	2.000000000000000e-01
	-7.253646816481264e-15
	-8.821340837299361e-19
	-2.018552548148898e-14
	2.170110198917605e-07
	9.466511005768947e-06
	1.177507573858552e-06
	2.184138807385750e-01

 21	2.100000000000000e-01
	-7.182730243171888e-15
	-9.024687201347132e-19
	-2.039673808464629e-14
	2.330018553675386e-07
	1.027457415486887e-05
	1.276155331292870e-06
	2.184138884188008e-01

 22	2.200000000000001e-01
	-7.113278687272474e-15
	-9.232242263818952e-19
	-2.060634924384752e-14
	2.500719455268320e-07
	1.115458138678937e-05
	1.383238032663742e-06
	2.184138967752901e-01

 23	2.300000000000001e-01
	-7.045297353361912e-15
	-9.444080921679333e-19
	-2.081429887577006e-14
	2.682848851111084e-07
	1.211324635549192e-05
	1.499508172059102e-06
	2.184139058711923e-01

 24	2.400000000000001e-01
	-6.978790467594846e-15
	-9.660279277637636e-19
	-2.102052884942201e-14
	2.877072286075925e-07
	1.315791305457022e-05
	1.625788486446616e-06
	2.184139157759379e-01

 25	2.500000000000001e-01
	-6.913761279366463e-15
	-9.880914665482586e-19
	-2.122498303278780e-14
	3.084085671258453e-07
	1.429660936104794e-05
	1.762978523757691e-06
	2.184139265658870e-01

 26	2.600000000000001e-01
	-6.850212065061543e-15
	-1.010606567620162e-18
	-2.142760733490334e-14
	3.304616027329077e-07
	1.553810373849985e-05
	1.912061762162338e-06
	2.184139383250254e-01

 27	2.700000000000001e-01
	-6.788144133830999e-15
	-1.033581218489759e-18
	-2.162834974333779e-14
	3.539422198231992e-07
	1.689196504264807e-05
	2.074113311868107e-06
	2.184139511457423e-01

 28	2.800000000000001e-01
	-6.727557835333507e-15
	-1.057023537852191e-18
	-2.182716035707608e-14
	3.789295530769645e-07
	1.836862532364890e-05
	2.250308229967135e-06
	2.184139651296737e-01

 29	2.900000000000001e-01
	-6.668452569374683e-15
	-1.080941778444493e-18
	-2.202399141481122e-14
	4.055060515381316e-07
	1.997944546326595e-05
	2.441930477520377e-06
	2.184139803886172e-01

 30	3.000000000000001e-01
	-6.610826797371426e-15
	-1.105344329987833e-18
	-2.221879731867138e-14
	4.337575383191767e-07
	2.173678342171197e-05
	2.650382546136102e-06
	2.184139970455451e-01

 31	3.100000000000001e-01
	-6.554678055564473e-15
	-1.130239722217388e-18
	-2.241153465342211e-14
	4.637732654171837e-07
	2.365406479790064e-05
	2.877195778695369e-06
	2.184140152356978e-01

 32	3.200000000000001e-01
	-6.500002969898479e-15
	-1.155636628001272e-18
	-2.260216220119810e-14
	4.956459631017348e-07
	2.574585532805954e-05
	3.124041405523275e-06
	2.184140351077672e-01

 33	3.300000000000001e-01
	-6.446797272485512e-15
	-1.181543866550856e-18
	-2.279064095183235e-14
	5.294718833117495e-07
	2.802793486112766e-05
	3.392742313122566e-06
	2.184140568251882e-01

 34	3.400000000000001e-01
	-6.395055819564278e-15
	-1.207970406724359e-18
	-2.297693410886488e-14
	5.653508364752642e-07
	3.051737225529715e-05
	3.685285557501967e-06
	2.184140805675349e-01

 35	3.500000000000001e-01
	-6.344772610865796e-15
	-1.234925370425576e-18
	-2.316100709132426e-14
	6.033862211436003e-07
	3.323260053881518e-05
	4.003835628068141e-06
	2.184141065320254e-01

 36	3.600000000000002e-01
	-6.295940810293203e-15
	-1.262418036100468e-18
	-2.334282753138754e-14
	6.436850458096443e-07
	3.619349157036122e-05
	4.350748460941357e-06
	2.184141349351394e-01

 37	3.700000000000002e-01
	-6.248552767822342e-15
	-1.290457842332797e-18
	-2.352236526803485e-14
	6.863579422595813e-07
	3.942142932080083e-05
	4.728586192336899e-06
	2.184141660143631e-01

 38	3.800000000000002e-01
	-6.202600042528413e-15
	-1.319054391541988e-18
	-2.369959233682476e-14
	7.315191697888190e-07
	4.293938078005187e-05
	5.140132633277864e-06
	2.184142000300555e-01

 39	3.900000000000002e-01
	-6.158073426643154e-15
	-1.348217453784512e-18
	-2.387448295592580e-14
	7.792866095963816e-07
	4.677196337162170e-05
	5.588409436329108e-06
	2.184142372674305e-01

 40	4.000000000000002e-01
	-6.114962970547031e-15
	-1.377956970661993e-18
	-2.404701350854715e-14
	8.297817486584784e-07
	5.094550763488754e-05
	6.076692913245394e-06
	2.184142780386958e-01

 41	4.100000000000002e-01
	-6.073258008600452e-15
	-1.408283059337789e-18
	-2.421716252192009e-14
	8.831296523720022e-07
	5.548811381356303e-05
	6.608531449409496e-06
	2.184143226852784e-01

 42	4.200000000000002e-01
	-6.032947185719403e-15
	-1.439206016664415e-18
	-2.438491064298618e-14
	9.394589252526683e-07
	6.042970087049333e-05
	7.187763446711037e-06
	2.184143715802204e-01

 43	4.300000000000002e-01
	-5.994018484600887e-15
	-1.470736323424793e-18
	-2.455024061095597e-14
	9.989016589719535e-07
	6.580204633691963e-05
	7.818535711144186e-06
	2.184144251306650e-01

 44	4.400000000000002e-01
	-5.956459253505498e-15
	-1.502884648689479e-18
	-2.471313722690447e-14
	1.061593367021912e-06
	7.163881530181707e-05
	8.505322184946503e-06
	2.184144837804914e-01

 45	4.500000000000002e-01
	-5.920256234505656e-15
	-1.535661854292268e-18
	-2.487358732057526e-14
	1.127672905309130e-06
	7.797557675754844e-05
	9.252942905690003e-06
	2.184145480130400e-01

 46	4.600000000000002e-01
	-5.885395592110185e-15
	-1.569078999427570e-18
	-2.503157971456637e-14
	1.197282377998916e-06
	8.484980544571799e-05
	1.006658305650659e-05
	2.184146183539450e-01

 47	4.700000000000003e-01
	-5.851862942177979e-15
	-1.603147345371549e-18
	-2.518710518607413e-14
	1.270567027959513e-06
	9.230086729600866e-05
	1.095181195278375e-05
	2.184146953740559e-01

 48	4.800000000000003e-01
	-5.819643381036167e-15
	-1.637878360330399e-18
	-2.534015642637188e-14
	1.347675111195073e-06
	1.003699865253129e-04
	1.191460179143477e-05
	2.184147796924405e-01

 49	4.900000000000003e-01
	-5.788721514720583e-15
	-1.673283724418175e-18
	-2.549072799820128e-14
	1.428757754706008e-06
	1.091001924691005e-04
	1.296134596950937e-05
	2.184148719794251e-01

 50	5.000000000000002e-01
	-5.759081488259579e-15
	-1.709375334767683e-18
	-2.563881629125315e-14
	1.513968797277244e-06
	1.185362442562366e-04
	1.409887675978968e-05
	2.184149729596569e-01

 51	5.100000000000002e-01
	-5.730707014925378e-15
	-1.746165310777281e-18
	-2.578441947591408e-14
	1.603464612770095e-06
	1.287245315167035e-04
	1.533448211248183e-05
	2.184150834151894e-01

 52	5.200000000000002e-01
	-5.703581405380018e-15
	-1.783665999496443e-18
	-2.592753745545299e-14
	1.697403915582874e-06
	1.397129494330736e-04
	1.667592133458179e-05
	2.184152041884992e-01

 53	5.300000000000002e-01
	-5.677687596647080e-15
	-1.821889981154263e-18
	-2.606817181682017e-14
	1.795947548049099e-06
	1.515507466146883e-04
	1.813143938240359e-05
	2.184153361854525e-01

 54	5.400000000000003e-01
	-5.653008180843268e-15
	-1.860850074833102e-18
	-2.620632578022701e-14
	1.899258249662179e-06
	1.642883444914904e-04
	1.970977948860974e-05
	2.184154803781513e-01

 55	5.500000000000003e-01
	-5.629525433607813e-15
	-1.900559344291709e-18
	-2.634200414767325e-14
	2.007500408150607e-06
	1.779771271945027e-04
	2.142019383337425e-05
	2.184156378076074e-01

 56	5.600000000000003e-01
	-5.607221342171790e-15
	-1.941031103941276e-18
	-2.647521325058176e-14
	2.120839792579287e-06
	1.926692012133278e-04
	2.327245196057370e-05
	2.184158095862171e-01

 57	5.700000000000003e-01
	-5.586077633012217e-15
	-1.982278924977828e-18
	-2.660596089669957e-14
	2.239443268820221e-06
	2.084171244978385e-04
	2.527684663467998e-05
	2.184159968999586e-01

 58	5.800000000000003e-01
	-5.566075799040737e-15
	-2.024316641674840e-18
	-2.673425631641589e-14
	2.363478497918093e-06
	2.252736051000600e-04
	2.744419683283836e-05
	2.184162010102627e-01

 59	5.900000000000003e-01
	-5.547197126279540e-15
	-2.067158357840481e-18
	-2.686011010864537e-14
	2.493113618073608e-06
	2.432911699302899e-04
	2.978584756997657e-05
	2.184164232554919e-01

 60	6.000000000000003e-01
	-5.529422719981679e-15
	-2.110818453442808e-18
	-2.698353418641670e-14
	2.628516911177052e-06
	2.625218047241444e-04
	3.231366626316281e-05
	2.184166650519976e-01

 61	6.100000000000003e-01
	-5.512733530155821e-15
	-2.155311591407762e-18
	-2.710454172230360e-14
	2.769856455046030e-06
	2.830165668782259e-04
	3.504003535525270e-05
	2.184169278946114e-01

 62	6.200000000000003e-01
	-5.497110376460269e-15
	-2.200652724593756e-18
	-2.722314709382631e-14
	2.917299762749923e-06
	3.048251734029982e-04
	3.797784093743277e-05
	2.184172133566082e-01

 63	6.300000000000003e-01
	-5.482533972433729e-15
	-2.246857102947873e-18
	-2.733936582894773e-14
	3.071013410639722e-06
	3.279955668525985e-04
	4.114045713590138e-05
	2.184175230890007e-01

 64	6.400000000000003e-01
	-5.468984949034424e-15
	-2.293940280847850e-18
	-2.745321455178079e-14
	3.231162656938519e-06
	3.525734627104707e-04
	4.454172605969866e-05
	2.184178588191410e-01

 65	6.500000000000004e-01
	-5.456443877462486e-15
	-2.341918124634512e-18
	-2.756471092861725e-14
	3.397911052983893e-06
	3.786018823237210e-04
	4.819593314467065e-05
	2.184182223485736e-01

 66	6.600000000000004e-01
	-5.444891291243836e-15
	-2.390806820340050e-18
	-2.767387361438223e-14
	3.571420049442798e-06
	4.061206760729689e-04
	5.211777777257218e-05
	2.184186155500827e-01

 67	6.700000000000004e-01
	-5.434307707557214e-15
	-2.440622881616540e-18
	-2.778072219961128e-14
	3.751848600038387e-06
	4.351660420223390e-04
	5.632233909411532e-05
	2.184190403639021e-01

 68	6.800000000000004e-01
	-5.424673647789022e-15
	-2.491383157870347e-18
	-2.788527715804112e-14
	3.939352765531165e-06
	4.657700457993815e-04
	6.082503703989286e-05
	2.184194987930514e-01

 69	6.900000000000004e-01
	-5.415969657303794e-15
	-2.543104842607146e-18
	-2.798755979489801e-14
	4.134085320878795e-06
	4.979601478902522e-04
	6.564158856294503e-05
	2.184199928977826e-01

 70	7.000000000000004e-01
	-5.408176324421047e-15
	-2.595805481993810e-18
	-2.808759219596151e-14
	4.336195368655162e-06
	5.317587448848582e-04
	7.078795922051309e-05
	2.184205247891334e-01

 71	7.100000000000004e-01
	-5.401274298591667e-15
	-2.649502983641664e-18
	-2.818539717747597e-14
	4.545827961933945e-06
	5.671827314539004e-04
	7.628031026926907e-05
	2.184210966215920e-01

 72	7.200000000000004e-01
	-5.395244307770481e-15
	-2.704215625617944e-18
	-2.828099823697364e-14
	4.763123739931254e-06
	6.042430899708009e-04
	8.213494151696206e-05
	2.184217105848994e-01

 73	7.300000000000004e-01
	-5.390067174983173e-15
	-2.759962065690102e-18
	-2.837441950507039e-14
	4.988218579750952e-06
	6.429445146937968e-04
	8.836823024271619e-05
	2.184223688950279e-01

 74	7.400000000000004e-01
	-5.385723834088790e-15
	-2.816761350810434e-18
	-2.846568569828627e-14
	5.221243267581331e-06
	6.832850772876269e-04
	9.499656656683327e-05
	2.184230737843912e-01

 75	7.500000000000004e-01
	-5.382195344741190e-15
	-2.874632926845408e-18
	-2.855482207293947e-14
	5.462323192650667e-06
	7.252559401837678e-04
	1.020362857174681e-04
	2.184238274913665e-01

 76	7.600000000000005e-01
	-5.379462906554510e-15
	-2.933596648557461e-18
	-2.864185438015606e-14
	5.711578067158920e-06
	7.688411238502787e-04
	1.095035977044880e-04
	2.184246322491966e-01

 77	7.700000000000005e-01
	-5.377507872480337e-15
	-2.993672789845211e-18
	-2.872680882203243e-14
	5.969121675263625e-06
	8.140173334684869e-04
	1.174145149687355e-04
	2.184254902744110e-01

 78	7.800000000000005e-01
	-5.376311761405434e-15
	-3.054882054248475e-18
	-2.880971200898310e-14
	6.235061654008673e-06
	8.607538497993473e-04
	1.257847786263345e-04
	2.184264037548393e-01

 79	7.900000000000005e-01
	-5.375856269981125e-15
	-3.117245585725718e-18
	-2.889059091830085e-14
	6.509499308848379e-06
	9.090124881775951e-04
	1.346297839712768e-04
	2.184273748373875e-01

 80	8.000000000000005e-01
	-5.376123283696484e-15
	-3.180784979709547e-18
	-2.896947285395275e-14
	6.792529466136812e-06
	9.587476286108011e-04
	1.439645059340357e-04
	2.184284056156869e-01

 81	8.100000000000005e-01
	-5.377094887209347e-15
	-3.245522294449535e-18
	-2.904638540763004e-14
	7.084240364628991e-06
	1.009906318901665e-03
	1.538034252183311e-04
	2.184294981177807e-01

 82	8.200000000000005e-01
	-5.378753373950193e-15
	-3.311480062648662e-18
	-2.912135642106689e-14
	7.384713587680820e-06
	1.062428451577331e-03
	1.641604558515422e-04
	2.184306542939905e-01

 83	8.300000000000005e-01
	-5.381081255014906e-15
	-3.378681303401105e-18
	-2.919441394963858e-14
	7.694024037443856e-06
	1.116247014223975e-03
	1.750488748859689e-04
	2.184318760051029e-01

 84	8.400000000000005e-01
	-5.384061267364082e-15
	-3.447149534440790e-18
	-2.926558622724609e-14
	8.012239951936795e-06
	1.171288411616136e-03
	1.864812549778558e-04
	2.184331650110625e-01

 85	8.500000000000005e-01
	-5.387676381346644e-15
	-3.516908784707761e-18
	-2.933490163249083e-14
	8.339422965446321e-06
	1.227472856826892e-03
	1.984694005487259e-04
	2.184345229602754e-01

 86	8.600000000000005e-01
	-5.391909807566892e-15
	-3.587983607242977e-18
	-2.940238865614001e-14
	8.675628212270504e-06
	1.284714827336283e-03
	2.110242881992628e-04
	2.184359513796803e-01

 87	8.700000000000006e-01
	-5.396745003114656e-15
	-3.660399092418955e-18
	-2.946807586987970e-14
	9.020904473381081e-06
	1.342923581050765e-03
	2.241560120003570e-04
	2.184374516657218e-01

 88	8.800000000000006e-01
	-5.402165677178316e-15
	-3.734180881517917e-18
	-2.953199189635068e-14
	9.375294365150591e-06
	1.402003726132853e-03
	2.378737342296292e-04
	2.184390250763132e-01

 89	8.900000000000006e-01
	-5.408155796061624e-15
	-3.809355180667335e-18
	-2.959416538045861e-14
	9.738834568878309e-06
	1.461855837643418e-03
	2.521856420559659e-04
	2.184406727239011e-01

 90	9.000000000000006e-01
	-5.414699587625245e-15
	-3.885948775141955e-18
	-2.965462496194783e-14
	1.011155609945861e-05
	1.522377113240369e-03
	2.670989106004635e-04
	2.184423955697268e-01

 91	9.100000000000006e-01
	-5.421781545173711e-15
	-3.963989044046708e-18
	-2.971339924922652e-14
	1.049348461117895e-05
	1.583462059575672e-03
	2.826196727213455e-04
	2.184441944193052e-01

 92	9.200000000000006e-01
	-5.429386430809536e-15
	-4.043503975389705e-18
	-2.977051679442755e-14
	1.088464073831283e-05
	1.645003200600311e-03
	2.987529957843808e-04
	2.184460699191809e-01

 93	9.300000000000006e-01
	-5.437499278275767e-15
	-4.124522181559542e-18
	-2.982600606968837e-14
	1.128504046789322e-05
	1.706891798732741e-03
	3.155028655908768e-04
	2.184480225549978e-01

 94	9.400000000000006e-01
	-5.446105395308031e-15
	-4.207072915219058e-18
	-2.987989544463100e-14
	1.169469554181996e-05
	1.769018579774089e-03
	3.328721775443528e-04
	2.184500526508480e-01

 95	9.500000000000006e-01
	-5.455190365517865e-15
	-4.291186085629982e-18
	-2.993221316502120e-14
	1.211361388526843e-05
	1.831274452560354e-03
	3.508627350461863e-04
	2.184521603699001e-01

 96	9.600000000000006e-01
	-5.464740049827927e-15
	-4.376892275421822e-18
	-2.998298733258551e-14
	1.254180005823159e-05
	1.893551214621502e-03
	3.694752550216830e-04
	2.184543457162667e-01

 97	9.700000000000006e-01
	-5.474740587480404e-15
	-4.464222757821499e-18
	-3.003224588596156e-14
	1.297925572694293e-05
	1.955742235558311e-03
	3.887093803929138e-04
	2.184566085380418e-01

 98	9.800000000000006e-01
	-5.485178396639081e-15
	-4.553209514357070e-18
	-3.008001658275760e-14
	1.342598015189085e-05
	2.017743110433890e-03
	4.085636992346458e-04
	2.184589485314451e-01

 99	9.900000000000007e-01
	-5.496040174605641e-15
	-4.643885253054547e-18
	-3.012632698269463e-14
	1.388197068914671e-05
	2.079452276189526e-03
	4.290357702763001e-04
	2.184613652459962e-01

 100	1.000000000000001e+00
	-5.507312897670097e-15
	-4.736283427141513e-18
	-3.017120443180461e-14
	1.434722330178369e-05
	2.140771584911781e-03
	4.501221543471100e-04
	2.184638580906067e-01

 101	1.010000000000001e+00
	-5.518983820615041e-15
	-4.830438254277655e-18
	-3.021467604765635e-14
	1.482173307826003e-05
	2.201606828676394e-03
	4.718184513045880e-04
	2.184664263404977e-01

 102	1.020000000000001e+00
	-5.531040475893214e-15
	-4.926384736328208e-18
	-3.025676870558025e-14
	1.530549475477315e-05
	2.261868211649840e-03
	4.941193419386038e-04
	2.184690691448271e-01

 103	1.030000000000001e+00
	-5.543470672496880e-15
	-5.024158679700298e-18
	-3.029750902586317e-14
	1.579850323875403e-05
	2.321470766116714e-03
	5.170186343052914e-04
	2.184717855349239e-01

 104	1.040000000000001e+00
	-5.556262494537692e-15
	-5.123796716260579e-18
	-3.033692336188238e-14
	1.630075413086514e-05
	2.380334710097046e-03
	5.405093139169891e-04
	2.184745744329900e-01

 105	1.050000000000001e+00
	-5.569404299554917e-15
	-5.225336324854237e-18
	-3.037503778914924e-14
	1.681224424307489e-05
	2.438385745198524e-03
	5.645835971961030e-04
	2.184774346611884e-01

 106	1.060000000000001e+00
	-5.582884716569292e-15
	-5.328815853445549e-18
	-3.041187809523101e-14
	1.733297211061487e-05
	2.495555294295139e-03
	5.892329875923499e-04
	2.184803649509766e-01

 107	1.070000000000001e+00
	-5.596692643899811e-15
	-5.434274541901690e-18
	-3.044746977052044e-14
	1.786293849586421e-05
	2.551780679516293e-03
	6.144483337633762e-04
	2.184833639526015e-01

 108	1.080000000000001e+00
	-5.610817246759268e-15
	-5.541752545440112e-18
	-3.048183799982209e-14
	1.840214688245735e-05
	2.607005241854932e-03
	6.402198892280807e-04
	2.184864302446270e-01

 109	1.090000000000001e+00
	-5.625247954645251e-15
	-5.651290958762644e-18
	-3.051500765472367e-14
	1.895060395816071e-05
	2.661178404445854e-03
	6.665373729189502e-04
	2.184895623434398e-01

 110	1.100000000000001e+00
	-5.639974458541254e-15
	-5.762931840899530e-18
	-3.054700328672233e-14
	1.950832008531553e-05
	2.714255682218274e-03
	6.933900300837736e-04
	2.184927587126055e-01

 111	1.110000000000001e+00
	-5.654986707943017e-15
	-5.876718240785197e-18
	-3.057784912107466e-14
	2.007530975789119e-05
	2.766198641182428e-03
	7.207666930171811e-04
	2.184960177720106e-01

 112	1.120000000000001e+00
	-5.670274907724716e-15
	-5.992694223592392e-18
	-3.060756905133965e-14
	2.065159204442967e-05
	2.816974811065706e-03
	7.486558411374209e-04
	2.184993379067556e-01

 113	1.130000000000001e+00
	-5.685829514858002e-15
	-6.110904897846805e-18
	-3.063618663458505e-14
	2.123719101639492e-05
	2.866557555370053e-03
	7.770456599630668e-04
	2.185027174756708e-01

 114	1.140000000000001e+00
	-5.701641234998134e-15
	-6.231396443350218e-18
	-3.066372508722673e-14
	2.183213616165473e-05
	2.914925903178683e-03
	8.059240985863332e-04
	2.185061548194873e-01

 115	1.150000000000001e+00
	-5.717701018948764e-15
	-6.354216139937086e-18
	-3.069020728147224e-14
	2.243646278303044e-05
	2.962064347204196e-03
	8.352789252840391e-04
	2.185096482685301e-01

 116	1.160000000000001e+00
	-5.734000059018601e-15
	-6.479412397092342e-18
	-3.071565574233935e-14
	2.305021238203707e-05
	3.007962612643998e-03
	8.650977809525231e-04
	2.185131961499930e-01

 117	1.170000000000001e+00
	-5.750529785280815e-15
	-6.607034784458168e-18
	-3.074009264522179e-14
	2.367343302811464e-05
	3.052615401403839e-03
	8.953682300985974e-04
	2.185167967947015e-01

 118	1.180000000000001e+00
	-5.767281861746700e-15
	-6.737134063259514e-18
	-3.076353981397413e-14
	2.430617971380987e-05
	3.096022116171515e-03
	9.260778091638541e-04
	2.185204485433830e-01

 119	1.190000000000001e+00
	-5.784248182464045e-15
	-6.869762218676399e-18
	-3.078601871948955e-14
	2.494851469651374e-05
	3.138186568681467e-03
	9.572140720037362e-04
	2.185241497524265e-01

 120	1.200000000000001e+00
	-5.801420867550021e-15
	-7.004972493196615e-18
	-3.080755047874374e-14
	2.560050782749112e-05
	3.179116676316322e-03
	9.887646323852983e-04
	2.185278987991086e-01

 121	1.210000000000001e+00
	-5.818792259168989e-15
	-7.142819420977197e-18
	-3.082815585427965e-14
	2.626223686905208e-05
	3.218824150951502e-03
	1.020717203407641e-03
	2.185316940863420e-01

 122	1.220000000000001e+00
	-5.836354917463109e-15
	-7.283358863252584e-18
	-3.084785525410851e-14
	2.693378780082212e-05
	3.257324183676613e-03
	1.053059633786911e-03
	2.185355340468829e-01

 123	1.230000000000001e+00
	-5.854101616445479e-15
	-7.426648044817652e-18
	-3.086666873200288e-14
	2.761525511615255e-05
	3.294635128726793e-03
	1.085779940982278e-03
	2.185394171470697e-01

 124	1.240000000000001e+00
	-5.872025339863088e-15
	-7.572745591626935e-18
	-3.088461598815885e-14
	2.830674210979322e-05
	3.330778189641532e-03
	1.118866341171139e-03
	2.185433418900746e-01

 125	1.250000000000001e+00
	-5.890119277037825e-15
	-7.721711569542002e-18
	-3.090171637020494e-14
	2.900836115801613e-05
	3.365777110342085e-03
	1.152307276110231e-03
	2.185473068187043e-01

 126	1.260000000000001e+00
	-5.908376818692519e-15
	-7.873607524267059e-18
	-3.091798887453562e-14
	2.972023399243417e-05
	3.399657873490044e-03
	1.186091436944488e-03
	2.185513105177576e-01

 127	1.270000000000001e+00
	-5.926791552768692e-15
	-8.028496522514272e-18
	-3.093345214794966e-14
	3.044249196880714e-05
	3.432448408164308e-03
	1.220207785047382e-03
	2.185553516159816e-01

 128	1.280000000000001e+00
	-5.945357260242548e-15
	-8.186443194433940e-18
	-3.094812448957228e-14
	3.117527633216938e-05
	3.464178308577318e-03
	1.254645569995302e-03
	2.185594287876157e-01

 129	1.290000000000001e+00
	-5.964067910945379e-15
	-8.347513777357764e-18
	-3.096202385304226e-14
	3.191873847964100e-05
	3.494878565246686e-03
	1.289394344793847e-03
	2.185635407536096e-01

 130	1.300000000000001e+00
	-5.982917659393314e-15
	-8.511776160895995e-18
	-3.097516784894593e-14
	3.267304022232026e-05
	3.524581309752072e-03
	1.324443978486973e-03
	2.185676862824646e-01

 131	1.310000000000001e+00
	-6.001900840632349e-15
	-8.679299933433713e-18
	-3.098757374747960e-14
	3.343835404766680e-05
	3.553319573936732e-03
	1.359784666289285e-03
	2.185718641908010e-01

 132	1.320000000000001e+00
	-6.021011966103022e-15
	-8.850156430075936e-18
	-3.099925848132398e-14
	3.421486338381423e-05
	3.581127064166745e-03
	1.395406937389551e-03
	2.185760733436093e-01

 133	1.330000000000001e+00
	-6.040245719529371e-15
	-9.024418782088262e-18
	-3.101023864871431e-14
	3.500276286725645e-05
	3.608037951033425e-03
	1.431301660577996e-03
	2.185803126542708e-01

 134	1.340000000000001e+00
	-6.059596952836214e-15
	-9.202161967884063e-18
	-3.102053051669072e-14
	3.580225861537286e-05
	3.634086674682105e-03
	1.467460047853028e-03
	2.185845810843246e-01

 135	1.350000000000001e+00
	-6.079060682098796e-15
	-9.383462865613649e-18
	-3.103015002451369e-14
	3.661356850526452e-05
	3.659307765769061e-03
	1.503873656163752e-03
	2.185888776430303e-01

 136	1.360000000000001e+00
	-6.098632083528077e-15
	-9.568400307405848e-18
	-3.103911278723106e-14
	3.743692246038587e-05
	3.683735681890100e-03
	1.540534387443775e-03
	2.185932013867507e-01

 137	1.370000000000001e+00
	-6.118306489495063e-15
	-9.757055135323766e-18
	-3.104743409938265e-14
	3.827256274646876e-05
	3.707404659188071e-03
	1.577434487089633e-03
	2.185975514181565e-01

 138	1.380000000000001e+00
	-6.138079384597079e-15
	-9.949510259088854e-18
	-3.105512893883007e-14
	3.912074427824514e-05
	3.730348578730075e-03
	1.614566541033467e-03
	2.186019268853066e-01

 139	1.390000000000001e+00
	-6.157946401768582e-15
	-1.014585071563899e-17
	-3.106221197069925e-14
	3.998173493849126e-05
	3.752600847149636e-03
	1.651923471555116e-03
	2.186063269805853e-01

 140	1.400000000000001e+00
	-6.177903318439107e-15
	-1.034616373058175e-17
	-3.106869755142429e-14
	4.085581591092899e-05
	3.774194290970429e-03
	1.689498531973198e-03
	2.186107509395420e-01

 141	1.410000000000001e+00
	-6.197946052740405e-15
	-1.055053878160747e-17
	-3.107459973288168e-14
	4.174328202853796e-05
	3.795161063967125e-03
	1.727285300348623e-03
	2.186151980396479e-01

 142	1.420000000000001e+00
	-6.218070659764775e-15
	-1.075906766393583e-17
	-3.107993226660425e-14
	4.264444213885582e-05
	3.815532566873223e-03
	1.765277672327345e-03
	2.186196675989673e-01

 143	1.430000000000001e+00
	-6.238273327876336e-15
	-1.097184455786105e-17
	-3.108470860806542e-14
	4.355961948786557e-05
	3.835339378713016e-03
	1.803469853241983e-03
	2.186241589747807e-01

 144	1.440000000000001e+00
	-6.258550375076835e-15
	-1.118896609847334e-17
	-3.108894192102382e-14
	4.448915212409964e-05
	3.854611199015305e-03
	1.841856349584647e-03
	2.186286715621605e-01

 145	1.450000000000001e+00
	-6.278898245427207e-15
	-1.141053144763204e-17
	-3.109264508192008e-14
	4.543339332462474e-05
	3.873376800157030e-03
	1.880431959955869e-03
	2.186332047925112e-01

 146	1.460000000000001e+00
	-6.299313505526213e-15
	-1.163664236827104e-17
	-3.109583068431690e-14
	4.639271204460862e-05
	3.891663989085114e-03
	1.919191765586922e-03
	2.186377581320887e-01

 147	1.470000000000001e+00
	-6.319792841046993e-15
	-1.186740330111658e-17
	-3.109851104337501e-14
	4.736749339221557e-05
	3.909499577672828e-03
	1.958131120525397e-03
	2.186423310805118e-01

 148	1.480000000000001e+00
	-6.340333053332505e-15
	-1.210292144390742e-17
	-3.110069820035700e-14
	4.835813913062878e-05
	3.926909360982026e-03
	1.997245641566532e-03
	2.186469231692651e-01

 149	1.490000000000001e+00
	-6.360931056050316e-15
	-1.234330683320173e-17
	-3.110240392715288e-14
	4.936506820905562e-05
	3.943918102722752e-03
	2.036531198005647e-03
	2.186515339602030e-01

 150	1.500000000000001e+00
	-6.381583871907681e-15
	-1.258867242886778e-17
	-3.110363973081987e-14
	5.038871732463080e-05
	3.960549527226393e-03
	2.075983901279861e-03
	2.186561630440848e-01

 151	1.510000000000001e+00
	-6.402288629426753e-15
	-1.283913420135095e-17
	-3.110441685813087e-14
	5.142954151721793e-05
	3.976826317277820e-03
	2.115600094561050e-03
	2.186608100390978e-01

 152	1.520000000000001e+00
	-6.423042559780704e-15
	-1.309481122181823e-17
	-3.110474630012570e-14
	5.248801479917258e-05
	3.992770117181723e-03
	2.155376342354983e-03
	2.186654745894355e-01

 153	1.530000000000001e+00
	-6.443842993690518e-15
	-1.335582575528512e-17
	-3.110463879665949e-14