Title: ** sch_path: /home/andylithia/openmpw/project-yatsuhashi-chip1/xschem/gmid_test/nmos_test.sch
Date: Tue Jul 19 23:15:45  2022
Plotname: DC transfer characteristic
Flags: real
No. Variables: 8
No. Points: 181
Variables:
	0	v(v-sweep)	voltage
	1	@m.xm1.msky130_fd_pr__nfet_01v8[cgb]	capacitance
	2	@m.xm1.msky130_fd_pr__nfet_01v8[cgd]	capacitance
	3	@m.xm1.msky130_fd_pr__nfet_01v8[cgs]	capacitance
	4	@m.xm1.msky130_fd_pr__nfet_01v8[gds]	admittance
	5	@m.xm1.msky130_fd_pr__nfet_01v8[gm]	admittance
	6	i(@m.xm1.msky130_fd_pr__nfet_01v8[id])	current
	7	v(@m.xm1.msky130_fd_pr__nfet_01v8[vth])	voltage
Values:
 0	0.000000000000000e+00
	-2.825044835398622e-15
	-8.144246764408490e-26
	-3.979487360802152e-18
	9.553889294794293e-26
	4.169762961289127e-23
	4.569003262960724e-25
	6.252989349846402e-01

 1	1.000000000000000e-02
	-2.813092565067070e-15
	-1.064860303867609e-25
	-3.970013477208094e-18
	2.379838330664478e-25
	1.038649158810984e-22
	1.138121751705994e-24
	6.252989349846402e-01

 2	2.000000000000000e-02
	-2.801288702526847e-15
	-1.392296850162191e-25
	-3.963372198113535e-18
	5.927162105843673e-25
	2.586969169582448e-22
	2.834575822531038e-24
	6.252989349846402e-01

 3	3.000000000000000e-02
	-2.789630062922629e-15
	-1.820403951760825e-25
	-3.960374545709698e-18
	1.476389208776308e-24
	6.443757293024716e-22
	7.060608648634691e-24
	6.252989349846402e-01

 4	4.000000000000000e-02
	-2.778113487277913e-15
	-2.380123143605434e-25
	-3.962085358170253e-18
	3.677538524283961e-24
	1.605038440095230e-21
	1.758727336014556e-23
	6.252989349846402e-01

 5	5.000000000000000e-02
	-2.766735822085960e-15
	-3.111899131071334e-25
	-3.969901864557514e-18
	9.160032629377042e-24
	3.997781178156145e-21
	4.380647505867669e-23
	6.252989349846402e-01

 6	6.000000000000000e-02
	-2.755493893479036e-15
	-4.068593691495281e-25
	-3.985656366264376e-18
	2.281540012435235e-23
	9.957294484069723e-21
	1.091112126028073e-22
	6.252989349846402e-01

 7	7.000000000000001e-02
	-2.744384474281217e-15
	-5.319289637075593e-25
	-4.011750261291953e-18
	5.682684814538315e-23
	2.479990772624473e-20
	2.717658399629702e-22
	6.252989349846402e-01

 8	8.000000000000000e-02
	-2.733404241758149e-15
	-6.954254312012313e-25
	-4.051328709009302e-18
	1.415321994738588e-22
	6.176320843797450e-20
	6.768564289107297e-22
	6.252989349846402e-01

 9	9.000000000000000e-02
	-2.722549723259740e-15
	-9.091412006179233e-25
	-4.108507803543672e-18
	3.524816262400482e-22
	1.538057496752946e-19
	1.685690311821743e-21
	6.252989349846402e-01

 10	9.999999999999999e-02
	-2.711817226189805e-15
	-1.188477710387369e-24
	-4.188669272903766e-18
	8.777491509924061e-22
	3.829564301927143e-19
	4.197703217577813e-21
	6.252989349846402e-01

 11	1.100000000000000e-01
	-2.701202747818209e-15
	-1.553543030370288e-24
	-4.298841482254557e-18
	2.185440677504537e-21
	9.532939971195530e-19
	1.045154125897020e-20
	6.252989349846402e-01

 12	1.200000000000000e-01
	-2.690701859381763e-15
	-2.030578519901052e-24
	-4.448189847852233e-18
	5.440045778571204e-21
	2.372175438773505e-18
	2.601620081890038e-20
	6.252989349846402e-01

 13	1.300000000000000e-01
	-2.680309557739864e-15
	-2.653809878641611e-24
	-4.648644465266330e-18
	1.353629032208803e-20
	5.899539891372801e-18
	6.473527349931286e-20
	6.252989349846402e-01

 14	1.400000000000000e-01
	-2.670020076660722e-15
	-3.467843383254278e-24
	-4.915697360532621e-18
	3.366175862446776e-20
	1.465882699658539e-17
	1.609823019282450e-19
	6.252989349846402e-01

 15	1.500000000000000e-01
	-2.659826648813107e-15
	-4.530758895401383e-24
	-5.269405406465210e-18
	8.363028650050680e-20
	3.637191385405533e-17
	3.999492817532255e-19
	6.252989349846402e-01

 16	1.600000000000000e-01
	-2.649721209070425e-15
	-5.918087606205824e-24
	-5.735636128703334e-18
	2.074661022085242e-19
	9.004725029207997e-17
	9.921754783484959e-19
	6.252989349846402e-01

 17	1.700000000000000e-01
	-2.639694030324339e-15
	-7.727904113096925e-24
	-6.347590136378110e-18
	5.134801403706932e-19
	2.221622980471117e-16
	2.455641689572357e-18
	6.252989349846402e-01

 18	1.800000000000000e-01
	-2.629733285351892e-15
	-1.008730814264199e-23
	-7.147622874074845e-18
	1.266287756736228e-18
	5.451715190912317e-16
	6.055831176592638e-18
	6.252989349846402e-01

 19	1.900000000000000e-01
	-2.619824533102020e-15
	-1.316061896578894e-23
	-8.189366976502394e-18
	3.105404874462209e-18
	1.326773766051593e-15
	1.485113298825553e-17
	6.252989349846402e-01

 20	2.000000000000000e-01
	-2.609950135348360e-15
	-1.715965285193706e-23
	-9.540123942298188e-18
	7.550971825037997e-18
	3.188551220421563e-15
	3.611139050925650e-17
	6.252989349846402e-01

 21	2.100000000000000e-01
	-2.600088618855947e-15
	-2.235649989462169e-23
	-1.128345565723850e-17
	1.812728926026339e-17
	7.520670891619560e-15
	8.669104382009885e-17
	6.252989349846402e-01

 22	2.200000000000001e-01
	-2.590214004766842e-15
	-2.909926644930849e-23
	-1.352188144966831e-17
	4.271141247402823e-17
	1.726605903890565e-14
	2.042609307718228e-16
	6.252989349846402e-01

 23	2.300000000000001e-01
	-2.580295121255466e-15
	-3.783132285163804e-23
	-1.637961609438886e-17
	9.802415271942190e-17
	3.819263110402335e-14
	4.687858295423650e-16
	6.252989349846402e-01

 24	2.400000000000001e-01
	-2.570294881394903e-15
	-4.911473852733830e-23
	-2.000543688007458e-17
	2.172131447618302e-16
	8.052211007553643e-14
	1.038789346822646e-15
	6.252989349846402e-01

 25	2.500000000000001e-01
	-2.560169425094138e-15
	-6.365887953480051e-23
	-2.457612732495690e-17
	4.607761401914342e-16
	1.603884554359905e-13
	2.203592939180205e-15
	6.252989349846402e-01

 26	2.600000000000001e-01
	-2.549866877181792e-15
	-8.235570136861726e-23
	-3.030156650412960e-17
	9.299730090397061e-16
	3.007957661139572e-13
	4.447456816292333e-15
	6.252989349846408e-01

 27	2.700000000000001e-01
	-2.539325272768517e-15
	-1.063242068190126e-22
	-3.743336472719502e-17
	1.782643606247182e-15
	5.333654494428218e-13
	8.525226548369204e-15
	6.252989349846408e-01

 28	2.800000000000001e-01
	-2.528468997633562e-15
	-1.369678977021111e-22
	-4.627975893518695e-17
	3.256116427645576e-15
	9.039107065669763e-13
	1.557189035232307e-14
	6.252989349846420e-01

 29	2.900000000000001e-01
	-2.517202976636088e-15
	-1.760507134503643e-22
	-5.722988758330762e-17
	5.707995081325945e-15
	1.484160619864606e-12
	2.729763445246180e-14
	6.252989349846425e-01

 30	3.000000000000001e-01
	-2.505403909332561e-15
	-2.257985952713225e-22
	-7.079018975314183e-17
	9.688359062538860e-15
	2.390128549785749e-12
	4.633313288707143e-14
	6.252989349846443e-01

 31	3.100000000000001e-01
	-2.492908138322053e-15
	-2.890349591705773e-22
	-8.763438207064372e-17
	1.605833307071597e-14
	3.808611183393366e-12
	7.679658851847850e-14
	6.252989349846474e-01

 32	3.200000000000001e-01
	-2.479496211564934e-15
	-3.693584787526110e-22
	-1.086664250265776e-16
	2.617673110088984e-14
	6.037014334155228e-12
	1.251863329201629e-13
	6.252989349846522e-01

 33	3.300000000000001e-01
	-2.464874815293017e-15
	-4.713701672383633e-22
	-1.350933338936042e-16
	4.219164972908965e-14
	9.545802846039851e-12
	2.017753336851883e-13
	6.252989349846594e-01

 34	3.400000000000001e-01
	-2.448657512912167e-15
	-6.009532547465503e-22
	-1.685016190949596e-16
	6.749795832273355e-14
	1.507755084341109e-11
	3.227990879030451e-13
	6.252989349846713e-01

 35	3.500000000000001e-01
	-2.430346696736427e-15
	-7.656030263071024e-22
	-2.109272814706006e-16
	1.074578176726355e-13
	2.380383736335397e-11
	5.139014319395696e-13
	6.252989349846891e-01

 36	3.600000000000002e-01
	-2.409320417482668e-15
	-9.747936156884647e-22
	-2.649043524020302e-16
	1.705372947557057e-13
	3.757321611946585e-11
	8.155703239894534e-13
	6.252989349847179e-01

 37	3.700000000000002e-01
	-2.384829317360427e-15
	-1.240353688745516e-21
	-3.334709163023396e-16
	2.701001711435267e-13
	5.930271633612413e-11
	1.291716694460629e-12
	6.252989349847632e-01

 38	3.800000000000002e-01
	-2.356010677187389e-15
	-1.576802384488862e-21
	-4.201047308547507e-16
	4.272390955524576e-13
	9.359574648682009e-11
	2.043214581860037e-12
	6.252989349848350e-01

 39	3.900000000000002e-01
	-2.321928282524003e-15
	-2.001571543708803e-21
	-5.285542598871230e-16
	6.752438135976790e-13
	1.477172431465893e-10
	3.229271197756958e-12
	6.252989349849466e-01

 40	4.000000000000002e-01
	-2.281647462107822e-15
	-2.535013867559630e-21
	-6.625290248426103e-16
	1.066652753405708e-12
	2.331325612985040e-10
	5.101153626714424e-12
	6.252989349851241e-01

 41	4.100000000000002e-01
	-2.234352138076429e-15
	-3.200078336822745e-21
	-8.252241272589451e-16
	1.684380952102782e-12
	3.679359266547735e-10
	8.055415300766157e-12
	6.252989349854042e-01

 42	4.200000000000002e-01
	-2.179501948207669e-15
	-4.021540216164773e-21
	-1.018689796901664e-15
	2.659279478055740e-12
	5.806824441361019e-10
	1.271789329861889e-11
	6.252989349858463e-01

 43	4.300000000000002e-01
	-2.117010368033732e-15
	-5.024723850368993e-21
	-1.243125602598769e-15
	4.197840525581211e-12
	9.164342902747557e-10
	2.007625857192283e-11
	6.252989349865445e-01

 44	4.400000000000002e-01
	-2.047402208337520e-15
	-6.233765705114694e-21
	-1.496267840866073e-15
	6.625903010568346e-12
	1.446299015426452e-09
	3.168916775984675e-11
	6.252989349876449e-01

 45	4.500000000000002e-01
	-1.971892138144541e-15
	-7.669619977155848e-21
	-1.773102029799897e-15
	1.045758148329163e-11
	2.282473251212542e-09
	5.001624486077004e-11
	6.252989349893833e-01

 46	4.600000000000002e-01
	-1.892331470289792e-15
	-9.348156919799616e-21
	-2.066105339951899e-15
	1.650393062380550e-11
	3.601960387547316e-09
	7.893859793074490e-11
	6.252989349921264e-01

 47	4.700000000000003e-01
	-1.811007535931425e-15
	-1.127876520570011e-20
	-2.366072132200063e-15
	2.604414088220545e-11
	5.683940842826358e-09
	1.245796393999437e-10
	6.252989349964549e-01

 48	4.800000000000003e-01
	-1.730336598021671e-15
	-1.346378508361876e-20
	-2.663350317135955e-15
	4.109497316241221e-11
	8.968597370059485e-09
	1.965988471349102e-10
	6.252989350032842e-01

 49	4.900000000000003e-01
	-1.652536093238835e-15
	-1.589888247954219e-20
	-2.949142625739098e-15
	6.483412092526404e-11
	1.414957284971493e-08
	3.102294275312072e-10
	6.252989350140608e-01

 50	5.000000000000002e-01
	-1.579367108149456e-15
	-1.857421799794070e-20
	-3.216513656606183e-15
	1.022637375948514e-10
	2.231894044958280e-08
	4.894837931871460e-10
	6.252989350310596e-01

 51	5.100000000000002e-01
	-1.512002209223127e-15
	-2.147608318966589e-20
	-3.460891134095912e-15
	1.612461588661154e-10
	3.519364389092719e-08
	7.721866413924894e-10
	6.252989350578704e-01

 52	5.200000000000002e-01
	-1.451022016157359e-15
	-2.458863212162611e-20
	-3.680056366705767e-15
	2.541101992152111e-10
	5.546704026947221e-08
	1.217854047857626e-09
	6.252989351001361e-01

 53	5.300000000000002e-01
	-1.396504984765833e-15
	-2.789541293258333e-20
	-3.873770823021299e-15
	4.001168099660339e-10
	8.734933278783622e-08
	1.919969462990914e-09
	6.252989351667227e-01

 54	5.400000000000003e-01
	-1.348161602837143e-15
	-3.138053694169765e-20
	-4.043234497537387e-15
	6.291816111124489e-10
	1.373852380595965e-07
	3.024966069996721e-09
	6.252989352715215e-01

 55	5.500000000000003e-01
	-1.305471825870046e-15
	-3.502944811291284e-20
	-4.190538454429777e-15
	9.873451078030125e-10
	2.156588357041291e-07
	4.761225118352529e-09
	6.252989354361960e-01

 56	5.600000000000003e-01
	-1.267801010168086e-15
	-3.882933910712697e-20
	-4.318207355454716e-15
	1.544456636764260e-09
	3.374904198247519e-07
	7.482513449530842e-09
	6.252989356943133e-01

 57	5.700000000000003e-01
	-1.234485047842776e-15
	-4.276929777513962e-20
	-4.428866444230962e-15
	2.404151134314785e-09
	5.256376531120498e-07
	1.173098248771930e-08
	6.252989360973267e-01

 58	5.800000000000003e-01
	-1.204885598691511e-15
	-4.684027216552714e-20
	-4.525027651777478e-15
	3.714984403092870e-09
	8.127054729853715e-07
	1.832369003034966e-08
	6.252989367228146e-01

 59	5.900000000000003e-01
	-1.178421153288714e-15
	-5.103492855771148e-20
	-4.608971035987727e-15
	5.678949335444776e-09
	1.242744886561075e-06
	2.846046406685943e-08
	6.252989376847726e-01

 60	6.000000000000003e-01
	-1.154580811793818e-15
	-5.534745763229037e-20
	-4.682693801539660e-15
	8.549487203981984e-09
	1.869770156358000e-06
	4.383484678976893e-08
	6.252989391442616e-01

 61	6.100000000000003e-01
	-1.132926896424946e-15
	-5.977336547413314e-20
	-4.747902565672304e-15
	1.260792464166651e-08
	2.749762655521794e-06
	6.670061756609305e-08
	6.252989413159278e-01

 62	6.200000000000003e-01
	-1.113091074423872e-15
	-6.430927147151435e-20
	-4.806030445134691e-15
	1.811148902591834e-08
	3.923979210449983e-06
	9.981486800764415e-08
	6.252989444629077e-01

 63	6.300000000000003e-01
	-1.094767224185284e-15
	-6.895272477092005e-20
	-4.858266338358450e-15
	2.522373928193619e-08
	5.398009381252771e-06
	1.461850439122036e-07
	6.252989488731283e-01

 64	6.400000000000003e-01
	-1.077703102690810e-15
	-7.370204415214006e-20
	-4.905588437775447e-15
	3.396083015925527e-08
	7.130117789078347e-06
	2.086394898370798e-07
	6.252989548187047e-01

 65	6.500000000000004e-01
	-1.061692021039542e-15
	-7.855618209182701e-20
	-4.948797355308426e-15
	4.418790329019769e-08
	9.041316426314350e-06
	2.893850229229784e-07
	6.252989625137662e-01

 66	6.600000000000004e-01
	-1.046565164964151e-15
	-8.351461154836486e-20
	-4.988546466748018e-15
	5.566775029258227e-08
	1.104279779185466e-05
	3.897640787915601e-07
	6.252989720909327e-01

 67	6.700000000000004e-01
	-1.032184839947725e-15
	-8.857723296541053e-20
	-5.025368461771286e-15
	6.812965994474341e-08
	1.306205583494633e-05
	5.102960238037271e-07
	6.252989836046854e-01

 68	6.800000000000004e-01
	-1.018438710776417e-15
	-9.374429866674351e-20
	-5.059697888478093e-15
	8.132377230413232e-08
	1.505420728968442e-05
	6.509106652160389e-07
	6.252989970531350e-01

 69	6.900000000000004e-01
	-1.005234991763453e-15
	-9.901635186976456e-20
	-5.091889909006169e-15
	9.504769985643284e-08
	1.699946417347685e-05
	8.112202723080543e-07
	6.252990124036732e-01

 70	7.000000000000004e-01
	-9.924984897520537e-16
	-1.043941777847636e-19
	-5.122235680943581e-15
	1.091508358807829e-07
	1.889471912561750e-05
	9.907301438700526e-07
	6.252990296129611e-01

 71	7.100000000000004e-01
	-9.801673827355361e-16
	-1.098787645846080e-19
	-5.150974844238834e-15
	1.235271615898517e-07
	2.074545081022812e-05
	1.188963200056675e-06
	6.252990486388471e-01

 72	7.200000000000004e-01
	-9.681906168354304e-16
	-1.154712723648359e-19
	-5.178305586053698e-15
	1.381047060848287e-07
	2.256023169946306e-05
	1.405516042379748e-06
	6.252990694457852e-01

 73	7.300000000000004e-01
	-9.565258138755976e-16
	-1.211730085320642e-19
	-5.204392713433371e-15
	1.528357582773296e-07
	2.434774121213552e-05
	1.640073185638113e-06
	6.252990920062744e-01

 74	7.400000000000004e-01
	-9.451375952712962e-16
	-1.269854083421198e-19
	-5.229374107208901e-15
	1.676891849644096e-07
	2.611546653201493e-05
	1.892400574406131e-06
	6.252991163002963e-01

 75	7.500000000000004e-01
	-9.339962422909527e-16
	-1.329100195520323e-19
	-5.253365871981879e-15
	1.826448948982234e-07
	2.786933904688069e-05
	2.162331308963970e-06
	6.252991423140066e-01

 76	7.600000000000005e-01
	-9.230766263261310e-16
	-1.389484903528859e-19
	-5.276466442347163e-15
	1.976900377199097e-07
	2.961381081727858e-05
	2.449750245274141e-06
	6.252991700382943e-01

 77	7.700000000000005e-01
	-9.123573548887313e-16
	-1.451025599171769e-19
	-5.298759857282416e-15
	2.128164683457794e-07
	3.135209528216313e-05
	2.754580340573770e-06
	6.252991994674989e-01

 78	7.800000000000005e-01
	-9.018200894082211e-16
	-1.513740510297873e-19
	-5.320318373594576e-15
	2.280190852257050e-07
	3.308643721260788e-05
	3.076771624596157e-06
	6.252992305983764e-01

 79	7.900000000000005e-01
	-8.914489995551748e-16
	-1.577648643805471e-19
	-5.341204555203981e-15
	2.432947533282124e-07
	3.481835503297776e-05
	3.416292758903486e-06
	6.252992634292990e-01

 80	8.000000000000005e-01
	-8.812303259261198e-16
	-1.642769741838986e-19
	-5.361472947157867e-15
	2.586416110500166e-07
	3.654883773810302e-05
	3.773124797591862e-06
	6.252992979596748e-01

 81	8.100000000000005e-01
	-8.711520286932302e-16
	-1.709124248606658e-19
	-5.381171420726469e-15
	2.740586263017140e-07
	3.827849624312416e-05
	4.147256685561811e-06
	6.252993341895190e-01

 82	8.200000000000005e-01
	-8.612035044617673e-16
	-1.776733285722627e-19
	-5.400342257875021e-15
	2.895453131571257e-07
	4.000767569526887e-05
	4.538682068499981e-06
	6.252993721191552e-01

 83	8.300000000000005e-01
	-8.513753572848276e-16
	-1.845618634416574e-19
	-5.419023029024214e-15
	3.051015515048693e-07
	4.173653684807926e-05
	4.947397064588030e-06
	6.252994117490138e-01

 84	8.400000000000005e-01
	-8.416592127320995e-16
	-1.915802723300543e-19
	-5.437247306613349e-15
	3.207274725939506e-07
	4.346511401603370e-05
	5.373398727082374e-06
	6.252994530794844e-01

 85	8.500000000000005e-01
	-8.320475662439069e-16
	-1.987308620656978e-19
	-5.455045247976716e-15
	3.364233866641426e-07
	4.519335582264460e-05
	5.816683995815475e-06
	6.252994961108248e-01

 86	8.600000000000005e-01
	-8.225336588466362e-16
	-2.060160030429749e-19
	-5.472444073948644e-15
	3.521897374307060e-07
	4.692115356833021e-05
	6.277248990792211e-06
	6.252995408430997e-01

 87	8.700000000000006e-01
	-8.131113747603299e-16
	-2.134381291270357e-19
	-5.489468464031496e-15
	3.680270736993936e-07
	4.864836082668362e-05
	6.755088543040678e-06
	6.252995872761404e-01

 88	8.800000000000006e-01
	-8.037751565751335e-16
	-2.209997378127591e-19
	-5.506140884574947e-15
	3.839360319112121e-07
	5.037480689878555e-05
	7.250195888866179e-06
	6.252996354095193e-01

 89	8.900000000000006e-01
	-7.945199345752396e-16
	-2.287033905975702e-19
	-5.522481862970152e-15
	3.999173256666152e-07
	5.210030600675843e-05
	7.762562476031463e-06
	6.252996852425405e-01

 90	9.000000000000006e-01
	-7.853410674984787e-16
	-2.365517135360368e-19
	-5.538510218157817e-15
	4.159717397141336e-07
	5.382466355376512e-05
	8.292177846284398e-06
	6.252997367742348e-01

 91	9.100000000000006e-01
	-7.762342925782582e-16
	-2.445473979508506e-19
	-5.554243255624087e-15
	4.321001268032285e-07
	5.554768037669664e-05
	8.839029569809879e-06
	6.252997900033525e-01

 92	9.200000000000006e-01
	-7.671956831540603e-16
	-2.526932012802405e-19
	-5.569696933388602e-15
	4.483034063839348e-07
	5.726915563234263e-05
	9.403103214934864e-06
	6.252998449283754e-01

 93	9.300000000000006e-01
	-7.582216124831097e-16
	-2.609919480458250e-19
	-5.584886004174985e-15
	4.645825645070889e-07
	5.898888875718252e-05
	9.984382341762129e-06
	6.252999015475148e-01

 94	9.400000000000006e-01
	-7.493087226589067e-16
	-2.694465309285778e-19
	-5.599824137919239e-15
	4.809386545152616e-07
	6.070668080127813e-05
	1.058284851206654e-05
	6.252999598587194e-01

 95	9.500000000000006e-01
	-7.404538977581044e-16
	-2.780599119428698e-19
	-5.614524027954923e-15
	4.973727982651206e-07
	6.242233534035160e-05
	1.119848131028181e-05
	6.253000198596846e-01

 96	9.600000000000006e-01
	-7.316542405077487e-16
	-2.868351237010465e-19
	-5.628997483568526e-15
	5.138861877178569e-07
	6.413565910403896e-05
	1.183125837209498e-05
	6.253000815478588e-01

 97	9.700000000000006e-01
	-7.229070519002928e-16
	-2.957752707624339e-19
	-5.643255511106876e-15
	5.304800867954321e-07
	6.584646241324484e-05
	1.248115541830531e-05
	6.253001449204512e-01

 98	9.800000000000006e-01
	-7.142098132910641e-16
	-3.048835310622529e-19
	-5.657308385412481e-15
	5.471558334394548e-07
	6.755455948902782e-05
	1.314814629237187e-05
	6.253002099744432e-01

 99	9.900000000000007e-01
	-7.055601705985533e-16
	-3.141631574168367e-19
	-5.671165713038945e-15
	5.639148418344001e-07
	6.925976867461309e-05
	1.383220300058726e-05
	6.253002767065921e-01

 100	1.000000000000001e+00
	-6.969559202962064e-16
	-3.236174791025091e-19
	-5.684836488440059e-15
	5.807586047728686e-07
	7.096191259857611e-05
	1.453329575415759e-05
	6.253003451134453e-01

 101	1.010000000000001e+00
	-6.883949969391045e-16
	-3.332499035065207e-19
	-5.698329144118972e-15
	5.976886961509175e-07
	7.266081829758444e-05
	1.525139301269982e-05
	6.253004151913452e-01

 102	1.020000000000001e+00
	-6.798754620129959e-16
	-3.430639178483881e-19
	-5.711651595556854e-15
	6.147067735881198e-07
	7.435631731107724e-05
	1.598646152881718e-05
	6.253004869364405e-01

 103	1.030000000000001e+00
	-6.713954939286163e-16
	-3.530630909711942e-19
	-5.724811281605727e-15
	6.318145811714363e-07
	7.604824575603962e-05
	1.673846639351618e-05
	6.253005603446913e-01

 104	1.040000000000001e+00
	-6.629533790130992e-16
	-3.632510752023769e-19
	-5.737815200920470e-15
	6.490139523249039e-07
	7.773644438728081e-05
	1.750737108229475e-05
	6.253006354118824e-01

 105	1.050000000000001e+00
	-6.545475033735668e-16
	-3.736316082840582e-19
	-5.750669944916070e-15
	6.663068128091856e-07
	7.942075864679677e-05
	1.829313750177597e-05
	6.253007121336278e-01

 106	1.060000000000001e+00
	-6.461763455272680e-16
	-3.842085153732889e-19
	-5.763381727662723e-15
	6.836951838564729e-07
	8.110103870458783e-05
	1.909572603679077e-05
	6.253007905053811e-01

 107	1.070000000000001e+00
	-6.378384697083001e-16
	-3.949857111127036e-19
	-5.775956413071369e-15
	7.011811854473223e-07
	8.277713949250041e-05
	1.991509559783226e-05
	6.253008705224419e-01

 108	1.080000000000001e+00
	-6.295325197738842e-16
	-4.059672017725358e-19
	-5.788399539672354e-15
	7.187670397369554e-07
	8.444892073214172e-05
	2.075120366881827e-05
	6.253009521799663e-01

 109	1.090000000000001e+00
	-6.212572136440158e-16
	-4.171570874649254e-19
	-5.800716343248397e-15
	7.364550746392369e-07
	8.611624695756175e-05
	2.160400635510547e-05
	6.253010354729742e-01

 110	1.100000000000001e+00
	-6.130113382172199e-16
	-4.285595644318272e-19
	-5.812911777548438e-15
	7.542477275773369e-07
	8.777898753318011e-05
	2.247345843170664e-05
	6.253011203963548e-01

 111	1.110000000000001e+00
	-6.047937447126916e-16
	-4.401789274078384e-19
	-5.824990533279593e-15
	7.721475494106979e-07
	8.943701666727816e-05
	2.335951339166380e-05
	6.253012069448758e-01

 112	1.120000000000001e+00
	-5.966033443954530e-16
	-4.520195720594944e-19
	-5.836957055549994e-15
	7.901572085486519e-07
	9.109021342128715e-05
	2.426212349453497e-05
	6.253012951131938e-01

 113	1.130000000000001e+00
	-5.884391046464829e-16
	-4.640859975028514e-19
	-5.848815559914180e-15
	8.082794952617180e-07
	9.273846171503856e-05
	2.518123981495356e-05
	6.253013848958564e-01

 114	1.140000000000001e+00
	-5.803000453443776e-16
	-4.763828089009432e-19
	-5.860570047154871e-15
	8.265173262023203e-07
	9.438165032809936e-05
	2.611681229121987e-05
	6.253014762873108e-01

 115	1.150000000000001e+00
	-5.721852355290539e-16
	-4.889147201433753e-19
	-5.872224316919515e-15
	8.448737491474692e-07
	9.601967289729465e-05
	2.706878977388657e-05
	6.253015692819150e-01

 116	1.160000000000001e+00
	-5.640937903212220e-16
	-5.016865566098613e-19
	-5.883781980316923e-15
	8.633519479767302e-07
	9.765242791049876e-05
	2.803712007430038e-05
	6.253016638739408e-01

 117	1.170000000000001e+00
	-5.560248680744337e-16
	-5.147032580201704e-19
	-5.895246471567613e-15
	8.819552478997056e-07
	9.927981869676885e-05
	2.902175001306366e-05
	6.253017600575776e-01

 118	1.180000000000001e+00
	-5.479776677389143e-16
	-5.279698813726710e-19
	-5.906621058791629e-15
	9.006871209481427e-07
	1.009017534128837e-04
	3.002262546837771e-05
	6.253018578269476e-01

 119	1.190000000000001e+00
	-5.399514264186001e-16
	-5.414916039740111e-19
	-5.917908854008899e-15
	9.195511917488159e-07
	1.025181450263536e-04
	3.103969142423500e-05
	6.253019571761023e-01

 120	1.200000000000001e+00
	-5.319454171047530e-16
	-5.552737265624710e-19
	-5.929112822419431e-15
	9.385512435943745e-07
	1.041289112949549e-04
	3.207289201842253e-05
	6.253020580990367e-01

 121	1.210000000000001e+00
	-5.239589465711689e-16
	-5.693216765278181e-19
	-5.940235791024061e-15
	9.576912248305028e-07
	1.057339747428501e-04
	3.312217059030407e-05
	6.253021605896908e-01

 122	1.220000000000001e+00
	-5.159913534174784e-16
	-5.836410112303872e-19
	-5.951280456640446e-15
	9.769752555789558e-07
	1.073332626333456e-04
	3.418746972834628e-05
	6.253022646419542e-01

 123	1.230000000000001e+00
	-5.080420062484417e-16
	-5.982374214223893e-19
	-5.962249393363628e-15
	9.964076348173638e-07
	1.089267069383403e-04
	3.526873131735487e-05
	6.253023702496767e-01

 124	1.240000000000001e+00
	-5.001103019780933e-16
	-6.131167347746580e-19
	-5.973145059516170e-15
	1.015992847838148e-06
	1.105142443045200e-04
	3.636589658538990e-05
	6.253024774066693e-01

 125	1.250000000000001e+00
	-4.921956642488809e-16
	-6.282849195118607e-19
	-5.983969804128242e-15
	1.035735574110368e-06
	1.120958160163442e-04
	3.747890615032570e-05
	6.253025861067109e-01

 126	1.260000000000001e+00
	-4.842975419566693e-16
	-6.437480881597011e-19
	-5.994725872984692e-15
	1.055640695570022e-06
	1.136713679558760e-04
	3.860770006602515e-05
	6.253026963435545e-01

 127	1.270000000000001e+00
	-4.764154078733809e-16
	-6.595125014075930e-19
	-6.005415414272613e-15
	1.075713305366075e-06
	1.152408505595003e-04
	3.975221786809635e-05
	6.253028081109286e-01

 128	1.280000000000001e+00
	-4.685487573597783e-16
	-6.755845720904143e-19
	-6.016040483860044e-15
	1.095958717091424e-06
	1.168042187715748e-04
	4.091239861920078e-05
	6.253029214025471e-01

 129	1.290000000000001e+00
	-4.606971071615612e-16
	-6.919708692931163e-19
	-6.026603050233619e-15
	1.116382474530054e-06
	1.183614319950541e-04
	4.208818095388257e-05
	6.253030362121080e-01

 130	1.300000000000001e+00
	-4.528599942824971e-16
	-7.086781225822347e-19
	-6.037104999120777e-15
	1.136990361953922e-06
	1.199124540391234e-04
	4.327950312288904e-05
	6.253031525333032e-01

 131	1.310000000000001e+00
	-4.450369749289082e-16
	-7.257132263682639e-19
	-6.047548137819795e-15
	1.157788415005477e-06
	1.214572530638796e-04
	4.448630303695283e-05
	6.253032703598177e-01

 132	1.320000000000001e+00
	-4.372276235202743e-16
	-7.430832444032527e-19
	-6.057934199258961e-15
	1.178782932204340e-06
	1.229958015220826e-04
	4.570851831000492e-05
	6.253033896853365e-01

 133	1.330000000000001e+00
	-4.294315317611573e-16
	-7.607954144180278e-19
	-6.068264845804561e-15
	1.199980487119557e-06
	1.245280760980092e-04
	4.694608630179199e-05
	6.253035105035483e-01

 134	1.340000000000001e+00
	-4.216483077700720e-16
	-7.788571529035494e-19
	-6.078541672835576e-15
	1.221387941251786e-06
	1.260540576434237e-04
	4.819894415986639e-05
	6.253036328081483e-01

 135	1.350000000000001e+00
	-4.138775752612399e-16
	-7.972760600413757e-19
	-6.088766212101588e-15
	1.243012457673205e-06
	1.275737311106835e-04
	4.946702886092258e-05
	6.253037565928411e-01

 136	1.360000000000001e+00
	-4.061189727755564e-16
	-8.160599247879701e-19
	-6.098939934879160e-15
	1.264861515476422e-06
	1.290870854829821e-04
	5.075027725144859e-05
	6.253038818513456e-01

 137	1.370000000000001e+00
	-3.983721529573116e-16
	-8.352167301180826e-19
	-6.109064254940537e-15
	1.286942925087646e-06
	1.305941137017375e-04
	5.204862608766719e-05
	6.253040085773964e-01

 138	1.380000000000001e+00
	-3.906367818735645e-16
	-8.547546584326294e-19
	-6.119140531347637e-15
	1.309264844503511e-06
	1.320948125911128e-04
	5.336201207473519e-05
	6.253041367647484e-01

 139	1.390000000000001e+00
	-3.829125383732624e-16
	-8.746820971364494e-19
	-6.129170071083124e-15
	1.331835796515623e-06
	1.335891827796562e-04
	5.469037190517427e-05
	6.253042664071787e-01

 140	1.400000000000001e+00
	-3.751991134834011e-16
	-8.950076443918984e-19
	-6.139154131529602e-15
	1.354664686991786e-06
	1.350772286190395e-04
	5.603364229650304e-05
	6.253043974984887e-01

 141	1.410000000000001e+00
	-3.674962098398159e-16
	-9.157401150540682e-19
	-6.149093922806952e-15
	1.377760824288359e-06
	1.365589580998549e-04
	5.739176002804200e-05
	6.253045300325080e-01

 142	1.420000000000001e+00
	-3.598035411502777e-16
	-9.368885467939644e-19
	-6.158990609977177e-15
	1.401133939874028e-06
	1.380343827644301e-04
	5.876466197686128e-05
	6.253046640030964e-01

 143	1.430000000000001e+00
	-3.521208316877826e-16
	-9.584622064159955e-19
	-6.168845315125517e-15
	1.424794210251719e-06
	1.395035176166055e-04
	6.015228515284162e-05
	6.253047994041447e-01

 144	1.440000000000001e+00
	-3.444478158121401e-16
	-9.804705963766445e-19
	-6.178659119325650e-15
	1.448752280272340e-06
	1.409663810284016e-04
	6.155456673281745e-05
	6.253049362295787e-01

 145	1.450000000000001e+00
	-3.367842375179793e-16
	-1.002923461510945e-18
	-6.188433064496561e-15
	1.473019287941650e-06
	1.424229946434961e-04
	6.297144409377009e-05
	6.253050744733620e-01

 146	1.460000000000001e+00
	-3.291298500075430e-16
	-1.025830795974387e-18
	-6.198168155157854e-15
	1.497606890829883e-06
	1.438733832774135e-04
	6.440285484504036e-05
	6.253052141294930e-01

 147	1.470000000000001e+00
	-3.214844152867058e-16
	-1.049202850407376e-18
	-6.207865360089970e-15
	1.522527294202757e-06
	1.453175748143119e-04
	6.584873685952534e-05
	6.253053551920118e-01

 148	1.480000000000001e+00
	-3.138477037827685e-16
	-1.073050139330242e-18
	-6.217525613905146e-15
	1.547793281002439e-06
	1.467556001002360e-04
	6.730902830382527e-05
	6.253054976550009e-01

 149	1.490000000000001e+00
	-3.062194939826824e-16
	-1.097383448776767e-18
	-6.227149818534718e-15
	1.573418243817836e-06
	1.481874928326865e-04
	6.878366766730517e-05
	6.253056415125854e-01

 150	1.500000000000001e+00
	-2.985995720904828e-16
	-1.122213844174818e-18
	-6.236738844637775e-15
	1.599416218995403e-06
	1.496132894463344e-04
	7.027259379003313e-05
	6.253057867589332e-01

 151	1.510000000000001e+00
	-2.909877317027610e-16
	-1.147552678482424e-18
	-6.246293532936028e-15
	1.625801923054582e-06
	1.510330289946843e-04
	7.177574588955464e-05
	6.253059333882598e-01

 152	1.520000000000001e+00
	-2.833837735010708e-16
	-1.173411600588797e-18
	-6.255814695479245e-15
	1.652590791586233e-06
	1.524467530274688e-04
	7.329306358646315e-05
	6.253060813948270e-01

 153	1.530000000000001e+00
	-2.757875049603133e-16
	-1.199802563989311e-18
	-6.265303116845472e-15