Title: ** sch_path: /home/andylithia/openmpw/project-yatsuhashi-chip1/xschem/gmid_test/nmos_test.sch
Date: Tue Jul 19 23:15:45  2022
Plotname: DC transfer characteristic
Flags: real
No. Variables: 8
No. Points: 181
Variables:
	0	v(v-sweep)	voltage
	1	@m.xm1.msky130_fd_pr__nfet_01v8[cgb]	capacitance
	2	@m.xm1.msky130_fd_pr__nfet_01v8[cgd]	capacitance
	3	@m.xm1.msky130_fd_pr__nfet_01v8[cgs]	capacitance
	4	@m.xm1.msky130_fd_pr__nfet_01v8[gds]	admittance
	5	@m.xm1.msky130_fd_pr__nfet_01v8[gm]	admittance
	6	i(@m.xm1.msky130_fd_pr__nfet_01v8[id])	current
	7	v(@m.xm1.msky130_fd_pr__nfet_01v8[vth])	voltage
Values:
 0	0.000000000000000e+00
	-3.537117580469583e-15
	6.235144160030216e-19
	-2.426787306905194e-15
	1.597729798387836e-08
	6.705929904867969e-07
	5.775260409670015e-08
	4.193291604663310e-01

 1	1.000000000000000e-02
	-3.502620799245472e-15
	6.334585869908653e-19
	-2.497604063910145e-15
	1.793223656437489e-08
	7.520404916441819e-07
	6.485812379494101e-08
	4.193291610198658e-01

 2	2.000000000000000e-02
	-3.468131080768155e-15
	6.432156891448770e-19
	-2.569575609339400e-15
	2.012233179505715e-08
	8.431877938538575e-07
	7.282572940627229e-08
	4.193291616405950e-01

 3	3.000000000000000e-02
	-3.433659914107134e-15
	6.527680628731639e-19
	-2.642674556803243e-15
	2.257512224982774e-08
	9.451588373251001e-07
	8.175793909032548e-08
	4.193291623365117e-01

 4	4.000000000000000e-02
	-3.399219421637297e-15
	6.620979706681545e-19
	-2.716871210049743e-15
	2.532123502274499e-08
	1.059203195895235e-06
	9.176912785590177e-08
	4.193291631165448e-01

 5	5.000000000000000e-02
	-3.364822327930069e-15
	6.711876471022616e-19
	-2.792133587073241e-15
	2.839470761197230e-08
	1.186709565381630e-06
	1.029868502123649e-07
	4.193291639906517e-01

 6	6.000000000000000e-02
	-3.330481925878024e-15
	6.800193501539081e-19
	-2.868427453499542e-15
	3.183333901521090e-08
	1.329220666843573e-06
	1.155533046544619e-07
	4.193291649699358e-01

 7	7.000000000000001e-02
	-3.296212040150543e-15
	6.885754136038827e-19
	-2.945716365321719e-15
	3.567907192412526e-08
	1.488449721647931e-06
	1.296269548973472e-07
	4.193291660667721e-01

 8	8.000000000000000e-02
	-3.262026988099514e-15
	6.968383002269701e-19
	-3.023961721000119e-15
	3.997840788734232e-08
	1.666298676496823e-06
	1.453843244509160e-07
	4.193291672949584e-01

 9	9.000000000000000e-02
	-3.227941538255353e-15
	7.047906554903598e-19
	-3.103122822878682e-15
	4.478285726126191e-08
	1.864878381427883e-06
	1.630219830251720e-07
	4.193291686698573e-01

 10	9.999999999999999e-02
	-3.193970866574058e-15
	7.124153614598737e-19
	-3.183156947805436e-15
	5.014942567877501e-08
	2.086530952820872e-06
	1.827587454294789e-07
	4.193291702085868e-01

 11	1.100000000000000e-01
	-3.160130510615632e-15
	7.196955906057317e-19
	-3.264019426781833e-15
	5.614113863142314e-08
	2.333854587288672e-06
	2.048381061138729e-07
	4.193291719301954e-01

 12	1.200000000000000e-01
	-3.126436321852880e-15
	7.266148591943926e-19
	-3.345663733399602e-15
	6.282760557286861e-08
	2.609731131668340e-06
	2.295309353506834e-07
	4.193291738558956e-01

 13	1.300000000000000e-01
	-3.092904416326779e-15
	7.331570799485730e-19
	-3.428041580761127e-15
	7.028562470319432e-08
	2.917356759873035e-06
	2.571384663291592e-07
	4.193291760092830e-01

 14	1.400000000000000e-01
	-3.059551123880397e-15
	7.393066136581515e-19
	-3.511103026514631e-15
	7.859982927584700e-08
	3.260276159795350e-06
	2.879956061988210e-07
	4.193291784166194e-01

 15	1.500000000000000e-01
	-3.026392936217404e-15
	7.450483194256808e-19
	-3.594796585575489e-15
	8.786337587376631e-08
	3.642420693413911e-06
	3.224746084224145e-07
	4.193291811071095e-01

 16	1.600000000000000e-01
	-2.993446454043380e-15
	7.503676032365215e-19
	-3.679069350044532e-15
	9.817867461928243e-08
	4.068151061246653e-06
	3.609891487629909e-07
	4.193291841132404e-01

 17	1.700000000000000e-01
	-2.960728333558147e-15
	7.552504645507942e-19
	-3.763867115779475e-15
	1.096581607055382e-07
	4.542305078647031e-06
	4.039988529155011e-07
	4.193291874711396e-01

 18	1.800000000000000e-01
	-2.928255232575389e-15
	7.596835406258502e-19
	-3.849134515022370e-15
	1.224251059569266e-07
	5.070251256153431e-06
	4.520143302838614e-07
	4.193291912209863e-01

 19	1.900000000000000e-01
	-2.896043756551213e-15
	7.636541482913132e-19
	-3.934815154438679e-15
	1.366144683350874e-07
	5.657948968772303e-06
	5.056027757826578e-07
	4.193291954074682e-01

 20	2.000000000000000e-01
	-2.864110404806620e-15
	7.671503229151772e-19
	-4.020851757880400e-15
	1.523737763989006e-07
	6.312016098703045e-06
	5.653942098832374e-07
	4.193292000802749e-01

 21	2.100000000000000e-01
	-2.832471517229477e-15
	7.701608543188698e-19
	-4.107186313147502e-15
	1.698640446966753e-07
	7.039805140832507e-06
	6.320884364877021e-07
	4.193292052946876e-01

 22	2.200000000000001e-01
	-2.801143221739701e-15
	7.726753194194327e-19
	-4.193760221991478e-15
	1.892607149140885e-07
	7.849488867632142e-06
	7.064628086422741e-07
	4.193292111121992e-01

 23	2.300000000000001e-01
	-2.770141382797146e-15
	7.746841114015977e-19
	-4.280514452578061e-15
	2.107546163215512e-07
	8.750156755929728e-06
	7.893809035969538e-07
	4.193292176012423e-01

 24	2.400000000000001e-01
	-2.739481551224773e-15
	7.761784652467013e-19
	-4.367389693608452e-15
	2.345529376636021e-07
	9.751923477066776e-06
	8.818022212443012e-07
	4.193292248379825e-01

 25	2.500000000000001e-01
	-2.709178915610508e-15
	7.771504794732589e-19
	-4.454326509285846e-15
	2.608802011170356e-07
	1.086605083711023e-05
	9.847930334216895e-07
	4.193292329072299e-01

 26	2.600000000000001e-01
	-2.679248255539604e-15
	7.775931339714076e-19
	-4.541265494309591e-15
	2.899792273262179e-07
	1.210508461609868e-05
	1.099538525758743e-06
	4.193292419034522e-01

 27	2.700000000000001e-01
	-2.649703896895632e-15
	7.775003038431936e-19
	-4.628147428081371e-15
	3.221120788200927e-07
	1.348300778362722e-05
	1.227356388410544e-06
	4.193292519319139e-01

 28	2.800000000000001e-01
	-2.620559669452372e-15
	7.768667691904857e-19
	-4.714913427316983e-15
	3.575609673491923e-07
	1.501541154900466e-05
	1.369712026733286e-06
	4.193292631099696e-01

 29	2.900000000000001e-01
	-2.591828866961322e-15
	7.756882208222197e-19
	-4.801505096273787e-15
	3.966291088824941e-07
	1.671968562198926e-05
	1.528235577181506e-06
	4.193292755685084e-01

 30	3.000000000000001e-01
	-2.563524209920109e-15
	7.739612618832677e-19
	-4.887864673826694e-15
	4.396415082100121e-07
	1.861522889666709e-05
	1.704740926713273e-06
	4.193292894535823e-01

 31	3.100000000000001e-01
	-2.535657811186502e-15
	7.716834054369006e-19
	-4.973935176655012e-15
	4.869456533525961e-07
	2.072368150631334e-05
	1.901246944871640e-06
	4.193293049282355e-01

 32	3.200000000000001e-01
	-2.508241144580618e-15
	7.688530680620853e-19
	-5.059660537838090e-15
	5.389120983379579e-07
	2.306917880941459e-05
	2.120001145345964e-06
	4.193293221745573e-01

 33	3.300000000000001e-01
	-2.481285016595214e-15
	7.654695595549778e-19
	-5.144985740198665e-15
	5.959349114217890e-07
	2.567862733395523e-05
	2.363505996863571e-06
	4.193293413959742e-01

 34	3.400000000000001e-01
	-2.454799541310254e-15
	7.615330688512550e-19
	-5.229856943779149e-15
	6.584319645826105e-07
	2.858200200632774e-05
	2.634548100153356e-06
	4.193293628198302e-01

 35	3.500000000000001e-01
	-2.428794118584061e-15
	7.570446463104242e-19
	-5.314221606887086e-15
	7.268450391737431e-07
	3.181266310222584e-05
	2.936230436678172e-06
	4.193293867002317e-01

 36	3.600000000000002e-01
	-2.403277415569206e-15
	7.520061825280871e-19
	-5.398028600200084e-15
	8.016397220539308e-07
	3.540769026238883e-05
	3.272007873873770e-06
	4.193294133212391e-01

 37	3.700000000000002e-01
	-2.378257351577277e-15
	7.464203838621372e-19
	-5.481228313479388e-15
	8.833050664253559e-07
	3.940822960457508e-05
	3.645726078647858e-06
	4.193294430003701e-01

 38	3.800000000000002e-01
	-2.353741086293109e-15
	7.402907448793444e-19
	-5.563772754500801e-15
	9.723529920665585e-07
	4.385984843110392e-05
	4.061663943678100e-06
	4.193294760924761e-01

 39	3.900000000000002e-01
	-2.329735011315938e-15
	7.336215179448011e-19
	-5.645615639874731e-15
	1.069317400743463e-06
	4.881289028623792e-05
	4.524579567431669e-06
	4.193295129939792e-01

 40	4.000000000000002e-01
	-2.306244744982860e-15
	7.264176801913720e-19
	-5.726712477490236e-15
	1.174752984390813e-06
	5.432282118086610e-05
	5.039759746768998e-06
	4.193295541474925e-01

 41	4.100000000000002e-01
	-2.283275130408817e-15
	7.186848981179161e-19
	-5.807020640382025e-15
	1.289233706248316e-06
	6.045055571158389e-05
	5.613072838751517e-06
	4.193296000468191e-01

 42	4.200000000000002e-01
	-2.260830236657459e-15
	7.104294900740862e-19
	-5.886499431882986e-15
	1.413350938564537e-06
	6.726274961505222e-05
	6.251024724583500e-06
	4.193296512423223e-01

 43	4.300000000000002e-01
	-2.238913362938860e-15
	7.016583868957048e-19
	-5.965110141987434e-15
	1.547711244782000e-06
	7.483204309588995e-05
	6.960817462901758e-06
	4.193297083466496e-01

 44	4.400000000000002e-01
	-2.217527045713018e-15
	6.923790909587601e-19
	-6.042816094911790e-15
	1.692933799299135e-06
	8.323723714979190e-05
	7.750410052217462e-06
	4.193297720407636e-01

 45	4.500000000000002e-01
	-2.196673068563030e-15
	6.825996339210670e-19
	-6.119582687897854e-15
	1.849647443947559e-06
	9.256338319857120e-05
	8.628580534680909e-06
	4.193298430802559e-01

 46	4.600000000000002e-01
	-2.176352474688272e-15
	6.723285334189181e-19
	-6.195377421360820e-15
	2.018487387172079e-06
	1.029017648074529e-04
	9.604988468329490e-06
	4.193299223018342e-01

 47	4.700000000000003e-01
	-2.156565581856382e-15
	6.615747489831054e-19
	-6.270169920536652e-15
	2.200091559458453e-06
	1.143497492319095e-04
	1.069023657698534e-05
	4.193300106299313e-01

 48	4.800000000000003e-01
	-2.137311999643066e-15
	6.503476374319307e-19
	-6.343931948833691e-15
	2.395096646684008e-06
	1.270104862183604e-04
	1.189593016212408e-05
	4.193301090832945e-01

 49	4.900000000000003e-01
	-2.118590648780925e-15
	6.386569079913585e-19
	-6.416637413138283e-15
	2.604133831585005e-06
	1.409924320399933e-04
	1.323473263724257e-05
	4.193302187814234e-01

 50	5.000000000000002e-01
	-2.100399782432641e-15
	6.265125773825932e-19
	-6.488262361365936e-15
	2.827824282217461e-06
	1.564086783579807e-04
	1.472041533220116e-05
	4.193303409507022e-01

 51	5.100000000000002e-01
	-2.082737009199597e-15
	6.139249251056718e-19
	-6.558784972586256e-15
	3.066774434870912e-06
	1.733760683104363e-04
	1.636789952402163e-05
	4.193304769300254e-01

 52	5.200000000000002e-01
	-2.065599317674805e-15
	6.009044491350966e-19
	-6.628185540082088e-15
	3.321571127079282e-06
	1.920140863610291e-04
	1.819328849433840e-05
	4.193306281757073e-01

 53	5.300000000000002e-01
	-2.048983102348462e-15
	5.874618222296867e-19
	-6.696446447730521e-15
	3.592776643839038e-06
	2.124435139479864e-04
	2.021388730567304e-05
	4.193307962654604e-01

 54	5.400000000000003e-01
	-2.032884190675309e-15
	5.736078490432481e-19
	-6.763552140116640e-15
	3.880923746565035e-06
	2.347848498554020e-04
	2.244820794278906e-05
	4.193309829011582e-01

 55	5.500000000000003e-01
	-2.017297871115738e-15
	5.593534242084710e-19
	-6.829489086808155e-15
	4.186510759359099e-06
	2.591565023914570e-04
	2.491595749489878e-05
	4.193311899101719e-01

 56	5.600000000000003e-01
	-2.002218921966363e-15
	5.447094915490642e-19
	-6.894245741233119e-15
	4.509996790542808e-06
	2.856727697176675e-04
	2.763800717147089e-05
	4.193314192449761e-01

 57	5.700000000000003e-01
	-1.987641640801000e-15
	5.296870045602415e-19
	-6.957812494611416e-15
	4.851797168848504e-06
	3.144416347428280e-04
	3.063634015838261e-05
	4.193316729807978e-01

 58	5.800000000000003e-01
	-1.973559874349438e-15
	5.142968882813605e-19
	-7.020181625395511e-15
	5.212279172983383e-06
	3.455624114885332e-04
	3.393397663846239e-05
	4.193319533110779e-01

 59	5.900000000000003e-01
	-1.959967048648468e-15
	4.985500026681895e-19
	-7.081347244677021e-15
	5.591758130359559e-06
	3.791232902707617e-04
	3.755487472293145e-05
	4.193322625405091e-01

 60	6.000000000000003e-01
	-1.946856199307956e-15
	4.824571075576532e-19
	-7.141305238012276e-15
	5.990493955598242e-06
	4.151988388704266e-04
	4.152380656456722e-05
	4.193326030755118e-01

 61	6.100000000000003e-01
	-1.934220001743452e-15
	4.660288293034454e-19
	-7.200053204114191e-15
	6.408688192049573e-06
	4.538475254836707e-04
	4.586620954045930e-05
	4.193329774120554e-01

 62	6.200000000000003e-01
	-1.922050801236130e-15
	4.492756291451577e-19
	-7.257590390848627e-15
	6.846481610211637e-06
	4.951093360359712e-04
	5.060801308677812e-05
	4.193333881207298e-01

 63	6.300000000000003e-01
	-1.910340642690773e-15
	4.322077733626262e-19
	-7.313917628961297e-15
	7.303952405868241e-06
	5.390035628275121e-04
	5.577544251867614e-05
	4.193338378291671e-01

 64	6.400000000000003e-01
	-1.899081299972218e-15
	4.148353052525209e-19
	-7.369037263947748e-15
	7.781115028387151e-06
	5.855268429417575e-04
	6.139480194857133e-05
	4.193343292018850e-01

 65	6.500000000000004e-01
	-1.888264304711191e-15
	3.971680189538519e-19
	-7.422953086462727e-15
	8.277919656378104e-06
	6.346515230057721e-04
	6.749223919421459e-05
	4.193348649177906e-01

 66	6.600000000000004e-01
	-1.877880974480410e-15
	3.792154351376566e-19
	-7.475670261647964e-15
	8.794252324312585e-06
	6.863244215151798e-04
	7.409349630973635e-05
	4.193354476456498e-01

 67	6.700000000000004e-01
	-1.867922440251968e-15
	3.609867785654516e-19
	-7.527195257739147e-15
	9.329935690278727e-06
	7.404660510013040e-04
	8.122365004261382e-05
	4.193360800178856e-01

 68	6.800000000000004e-01
	-1.858379673057176e-15
	3.424909575123052e-19
	-7.577535774292859e-15
	9.884730422292217e-06
	7.969703500139691e-04
	8.890684708231691e-05
	4.193367646032068e-01

 69	6.900000000000004e-01
	-1.849243509779597e-15
	3.237365450407100e-19
	-7.626700670354571e-15
	1.045833716897681e-05
	8.557049596355989e-04
	9.716603939051872e-05
	4.193375038785880e-01

 70	7.000000000000004e-01
	-1.840504678021593e-15
	3.047317621035719e-19
	-7.674699892868186e-15
	1.105039907035281e-05
	9.165120616558849e-04
	1.060227251616369e-04
	4.193383002012100e-01

 71	7.100000000000004e-01
	-1.832153819993835e-15
	2.854844624456708e-19
	-7.721544405606675e-15
	1.166050475622563e-05
	9.792097764260987e-04
	1.154967010368116e-04
	4.193391557809539e-01

 72	7.200000000000004e-01
	-1.824181515385909e-15
	2.660021192665215e-19
	-7.767246118882946e-15
	1.228819177342548e-05
	1.043594098713561e-03
	1.256058310736459e-04
	4.193400726541074e-01

 73	7.300000000000004e-01
	-1.816578303184672e-15
	2.462918135994661e-19
	-7.811817820278797e-15
	1.293295037898134e-05
	1.109441330595253e-03
	1.363658376574291e-04
	4.193410526588899e-01

 74	7.400000000000004e-01
	-1.809334702414813e-15
	2.263602243552761e-19
	-7.855273106609528e-15
	1.359422763416342e-05
	1.176510952570235e-03
	1.477901190365093e-04
	4.193420974133761e-01

 75	7.500000000000004e-01
	-1.802441231783525e-15
	2.062136199718390e-19
	-7.897626317321533e-15
	1.427143173404654e-05
	1.244548858566767e-03
	1.598895974940833e-04
	4.193432082963259e-01

 76	7.600000000000005e-01
	-1.795888428218517e-15
	1.858578516060826e-19
	-7.938892469499358e-15
	1.496393650859819e-05
	1.313290868166865e-03
	1.726726013587658e-04
	4.193443864313819e-01

 77	7.700000000000005e-01
	-1.789666864294749e-15
	1.652983477976818e-19
	-7.979087194639841e-15
	1.567108603399480e-05
	1.382466420769920e-03
	1.861447831417713e-04
	4.193456326749493e-01

 78	7.800000000000005e-01
	-1.783767164551778e-15
	1.445401105302336e-19
	-8.018226677330942e-15
	1.639219929659563e-05
	1.451802351934027e-03
	2.003090751089349e-04
	4.193469476080103e-01

 79	7.900000000000005e-01
	-1.778180020709026e-15
	1.235877126103670e-19
	-8.056327595954028e-15
	1.712657485644373e-05
	1.521026651882577e-03
	2.151656825932203e-04
	4.193483315319900e-01

 80	8.000000000000005e-01
	-1.772896205791481e-15
	1.024452962821222e-19
	-8.093407065510394e-15
	1.787349546202257e-05
	1.589872110004422e-03
	2.307121143696609e-04
	4.193497844686682e-01

 81	8.100000000000005e-01
	-1.767906587183154e-15
	8.111657299070551e-20
	-8.129482582654384e-15
	1.863223257301957e-05
	1.658079756735731e-03
	2.469432484889567e-04
	4.193513061640392e-01

 82	8.200000000000005e-01
	-1.763202138629789e-15
	5.960482420850945e-20
	-8.164571972998724e-15
	1.940205075283617e-05
	1.725402024924627e-03
	2.638514311327179e-04
	4.193528960959245e-01

 83	8.300000000000005e-01
	-1.758773951216081e-15
	3.791290323383002e-20
	-8.198693340741221e-15
	2.018221189739988e-05
	1.791605565935875e-03
	2.814266053406061e-04
	4.193545534850106e-01

 84	8.400000000000005e-01
	-1.754613243346075e-15
	1.604323787380506e-20
	-8.231865020646295e-15
	2.097197927138271e-05
	1.856473670555876e-03
	2.996564658875913e-04
	4.193562773089692e-01

 85	8.500000000000005e-01
	-1.750711369758258e-15
	-6.002166077149855e-21
	-8.264105532400130e-15
	2.177062132718560e-05
	1.919808260386769e-03
	3.185266361705728e-04
	4.193580663192175e-01

 86	8.600000000000005e-01
	-1.747059829609302e-15
	-2.822172065043445e-20
	-8.295433537344622e-15
	2.257741528600991e-05
	1.981431431079754e-03
	3.380208627017704e-04
	4.193599190598578e-01

 87	8.700000000000006e-01
	-1.743650273662449e-15
	-5.061425089308705e-20
	-8.325867797582479e-15
	2.339165046403394e-05
	2.041186543736133e-03
	3.581212226980475e-04
	4.193618338882981e-01

 88	8.800000000000006e-01
	-1.740474510618245e-15
	-7.317898951620138e-20
	-8.355427137434159e-15
	2.421263133018963e-05
	2.098938874498195e-03
	3.788083402906564e-04
	4.193638089970844e-01

 89	8.900000000000006e-01
	-1.737524512626354e-15
	-9.591557108104174e-20
	-8.384130407217117e-15
	2.503968028534435e-05
	2.154575844296343e-03
	4.000616070434989e-04
	4.193658424364419e-01

 90	9.000000000000006e-01
	-1.734792420018419e-15
	-1.188240257980174e-19
	-8.411996449307763e-15
	2.587214015586510e-05
	2.208006860596376e-03
	4.218594027403775e-04
	4.193679321370875e-01

 91	9.100000000000006e-01
	-1.732270545302055e-15
	-1.419047730088919e-19
	-8.439044066439071e-15
	2.670937639761890e-05
	2.259162810632112e-03
	4.441793127614897e-04
	4.193700759329028e-01

 92	9.200000000000006e-01
	-1.729951376456674e-15
	-1.651586144196453e-19
	-8.465291992178859e-15
	2.755077900944563e-05
	2.307995250979074e-03
	4.669983387937317e-04
	4.193722715830733e-01

 93	9.300000000000006e-01
	-1.727827579571544e-15
	-1.885867271452987e-19
	-8.490758863527946e-15
	2.839576415802772e-05
	2.354475341507376e-03
	4.902931000859068e-04
	4.193745167933884e-01

 94	9.400000000000006e-01
	-1.725892000866299e-15
	-2.121906566242742e-19
	-8.515463195572322e-15
	2.924377551885698e-05
	2.398592572923268e-03
	5.140400229477269e-04
	4.193768092364447e-01

 95	9.500000000000006e-01
	-1.724137668133515e-15
	-2.359723094554752e-19
	-8.539423358119056e-15
	3.009428534063349e-05
	2.440353336514536e-03
	5.382155166816711e-04
	4.193791465704958e-01

 96	9.600000000000006e-01
	-1.722557791642298e-15
	-2.599339462060211e-19
	-8.562657554242663e-15
	3.094679524287677e-05
	2.479779382642312e-03
	5.627961346128833e-04
	4.193815264568440e-01

 97	9.700000000000006e-01
	-1.721145764540882e-15
	-2.840781742342262e-19
	-8.585183800666029e-15
	3.180083675876623e-05
	2.516906211281348e-03
	5.877587193317211e-04
	4.193839465755991e-01

 98	9.800000000000006e-01
	-1.719895162795208e-15
	-3.084079405673121e-19
	-8.607019909898441e-15
	3.265597163719345e-05
	2.551781433808309e-03
	6.130805316755404e-04
	4.193864046397947e-01

 99	9.900000000000007e-01
	-1.718799744699279e-15
	-3.329265248700854e-19
	-8.628183474052195e-15
	3.351179191969127e-05
	2.584463140567602e-03
	6.387393633443767e-04
	4.193888984077985e-01

 100	1.000000000000001e+00
	-1.717853449991806e-15
	-3.576375325373050e-19
	-8.648691850258907e-15
	3.436791980926743e-05
	2.615018303769275e-03
	6.647136333646943e-04
	4.193914256940302e-01

 101	1.010000000000001e+00
	-1.717050398612448e-15
	-3.825448879379478e-19
	-8.668562147606696e-15
	3.522400734919873e-05
	2.643521240222546e-03
	6.909824688844928e-04
	4.193939843780641e-01

 102	1.020000000000001e+00
	-1.716384889129290e-15
	-4.076528278380404e-19
	-8.687811215520223e-15
	3.607973593054486e-05
	2.670052153471014e-03
	7.175257710024950e-04
	4.193965724121274e-01

 103	1.030000000000001e+00
	-1.715851396868101e-15
	-4.329658950246032e-19
	-8.706455633506232e-15
	3.693481564750131e-05
	2.694695770217693e-03
	7.443242665050265e-04
	4.193991878271178e-01

 104	1.040000000000001e+00
	-1.715444571772204e-15
	-4.584889321504862e-19
	-8.724511702189004e-15
	3.778898451976600e-05
	2.717540081620339e-03
	7.713595465104845e-04
	4.194018287372460e-01

 105	1.050000000000001e+00
	-1.715159236020423e-15
	-4.842270758193098e-19
	-8.741995435561337e-15
	3.864200760086133e-05
	2.738675196172002e-03
	7.986140931068236e-04
	4.194044933433653e-01

 106	1.060000000000001e+00
	-1.714990381429188e-15
	-5.101857509243964e-19
	-8.758922554378825e-15
	3.949367599084866e-05
	2.758192307498840e-03
	8.260712951164797e-04
	4.194071799351742e-01

 107	1.070000000000001e+00
	-1.714933166663246e-15
	-5.363706652571718e-19
	-8.775308480627079e-15
	4.034380577115634e-05
	2.776182777523937e-03
	8.537154541414632e-04
	4.194098868923428e-01

 108	1.080000000000001e+00
	-1.714982914278225e-15
	-5.627878043952373e-19
	-8.791168332993829e-15
	4.119223687832483e-05
	2.792737333052811e-03
	8.815317820328717e-04
	4.194126126847413e-01

 109	1.090000000000001e+00
	-1.715135107616665e-15
	-5.894434268818948e-19
	-8.806516923280091e-15
	4.203883193241588e-05
	2.807945371913561e-03
	9.095063908996011e-04
	4.194153558718381e-01

 110	1.100000000000001e+00
	-1.715385387577989e-15
	-6.163440597046599e-19
	-8.821368753687024e-15
	4.288347503465305e-05
	2.821894373295071e-03
	9.376262767242167e-04
	4.194181151014195e-01

 111	1.110000000000001e+00
	-1.715729549281398e-15
	-6.434964940811335e-19
	-8.835738014917452e-15
	4.372607054761171e-05
	2.834669405830445e-03
	9.658792975946134e-04
	4.194208891077076e-01

 112	1.120000000000001e+00
	-1.716163538639435e-15
	-6.709077815583995e-19
	-8.849638585033714e-15
	4.456654186998046e-05
	2.846352726221874e-03
	9.942541474914886e-04
	4.194236767089827e-01

 113	1.130000000000001e+00
	-1.716683448858788e-15
	-6.985852304306381e-19
	-8.863084029015730e-15
	4.540483021660349e-05
	2.857023460750469e-03
	1.022740326497045e-03
	4.194264768048223e-01

 114	1.140000000000001e+00
	-1.717285516883623e-15
	-7.265364024802357e-19
	-8.876087598965929e-15
	4.624089341321802e-05
	2.866757361813168e-03
	1.051328108212785e-03
	4.194292883730096e-01

 115	1.150000000000001e+00
	-1.717966119795630e-15
	-7.547691100451406e-19
	-8.888662234909979e-15
	4.707470471403419e-05
	2.875626631633152e-03
	1.080008505095542e-03
	4.194321104662040e-01

 116	1.160000000000001e+00
	-1.718721771183857e-15
	-7.832914134154822e-19
	-8.900820566144907e-15
	4.790625164909049e-05
	2.883699805459392e-03
	1.108773232343169e-03
	4.194349422084449e-01

 117	1.170000000000001e+00
	-1.719549117496444e-15
	-8.121116185621489e-19
	-8.912574913088280e-15
	4.873553490717229e-05
	2.891041686867691e-03
	1.137614670886111e-03
	4.194377827915217e-01

 118	1.180000000000001e+00
	-1.720444934385216e-15
	-8.412382751974805e-19
	-8.923937289585024e-15
	4.956256725900390e-05
	2.897713328166000e-03
	1.166525829969019e-03
	4.194406314713066e-01

 119	1.190000000000001e+00
	-1.721406123053301e-15
	-8.706801751705810e-19
	-8.934919405630199e-15
	5.038737252444084e-05
	2.903772049364047e-03
	1.195500309739222e-03
	4.194434875640464e-01

 120	1.200000000000001e+00
	-1.722429706614992e-15
	-9.004463511970755e-19
	-8.945532670468656e-15
	5.120998458647978e-05
	2.909271489665195e-03
	1.224532264195826e-03
	4.194463504426933e-01

 121	1.210000000000001e+00
	-1.723512826476175e-15
	-9.305460759237253e-19
	-8.955788196034770e-15
	5.203044645409621e-05
	2.914261685959282e-03
	1.253616364795751e-03
	4.194492195332664e-01

 122	1.220000000000001e+00
	-1.724652738742931e-15
	-9.609888613275978e-19
	-8.965696800697197e-15
	5.284880937518698e-05
	2.918789173320571e-03
	1.282747764960305e-03
	4.194520943113113e-01

 123	1.230000000000001e+00
	-1.725846810665135e-15
	-9.917844584499110e-19
	-8.975269013276052e-15
	5.366513200026248e-05
	2.922897103034307e-03
	1.311922065678932e-03
	4.194549742984479e-01

 124	1.240000000000001e+00
	-1.727092517121133e-15
	-1.022942857463573e-18
	-8.984515077301725e-15
	5.447947959697103e-05
	2.926625374176890e-03
	1.341135282364402e-03
	4.194578590590372e-01

 125	1.250000000000001e+00
	-1.728387437148999e-15
	-1.054474288073593e-18
	-8.993444955486350e-15
	5.529192331506154e-05
	2.930010775252774e-03
	1.370383813076595e-03
	4.194607481969909e-01

 126	1.260000000000001e+00
	-1.729729250529091e-15
	-1.086389220250508e-18
	-9.002068334381243e-15
	5.610253950098842e-05
	2.933087132840181e-03
	1.399664408199517e-03
	4.194636413526911e-01

 127	1.270000000000001e+00
	-1.731115734422337e-15
	-1.118698365294248e-18
	-9.010394629194613e-15
	5.691140906101695e-05
	2.935885464613669e-03
	1.428974141627567e-03
	4.194665382000927e-01

 128	1.280000000000001e+00
	-1.732544760067781e-15
	-1.151412677228957e-18
	-9.018432988746420e-15
	5.771861687142184e-05
	2.938434134494835e-03
	1.458310383493205e-03
	4.194694384439535e-01

 129	1.290000000000001e+00
	-1.734014289542689e-15
	-1.184543354527319e-18
	-9.026192300538243e-15
	5.852425123414410e-05
	2.940759008029668e-03
	1.487670774447199e-03
	4.194723418172197e-01

 130	1.300000000000001e+00
	-1.735522372587983e-15
	-1.218101842163017e-18
	-9.033681195917771e-15
	5.932840337610202e-05
	2.942883606405009e-03
	1.517053201485305e-03
	4.194752480785765e-01

 131	1.310000000000001e+00
	-1.737067143501200e-15
	-1.252099833991340e-18
	-9.040908055319164e-15
	6.013116699023165e-05
	2.944829257796968e-03
	1.546455775301052e-03
	4.194781570101331e-01

 132	1.320000000000001e+00
	-1.738646818099001e-15
	-1.286549275456190e-18
	-9.047881013561601e-15
	6.093263781623694e-05
	2.946615244992680e-03
	1.575876809132224e-03
	4.194810684152725e-01

 133	1.330000000000001e+00
	-1.740259690750689e-15
	-1.321462366623983e-18
	-9.054607965189981e-15
	6.173291325898338e-05
	2.948258948445893e-03
	1.605314799059461e-03
	4.194839821166328e-01

 134	1.340000000000001e+00
	-1.741904131484026e-15
	-1.356851565542633e-18
	-9.061096569842757e-15
	6.253209204244003e-05
	2.949775984117876e-03
	1.634768405707863e-03
	4.194868979542424e-01

 135	1.350000000000001e+00
	-1.743578583164075e-15
	-1.392729591927011e-18
	-9.067354257633328e-15
	6.333027389707748e-05
	2.951180335621027e-03
	1.664236437296951e-03
	4.194898157837743e-01

 136	1.360000000000001e+00
	-1.745281558745887e-15
	-1.429109431168714e-18
	-9.073388234532301e-15
	6.412755927864837e-05
	2.952484480324777e-03
	1.693717833980171e-03
	4.194927354749473e-01

 137	1.370000000000001e+00
	-1.747011638601183e-15
	-1.466004338672135e-18
	-9.079205487739097e-15
	6.492404911631636e-05
	2.953699509205137e-03
	1.723211653412480e-03
	4.194956569100398e-01

 138	1.380000000000001e+00
	-1.748767467919272e-15
	-1.503427844516180e-18
	-9.084812791032506e-15
	6.571984458815049e-05
	2.954835240321582e-03
	1.752717057482818e-03
	4.194985799825245e-01

 139	1.390000000000001e+00
	-1.750547754181997e-15
	-1.541393758442574e-18
	-9.090216710090534e-15
	6.651504692206381e-05
	2.955900325890928e-03
	1.782233300147580e-03
	4.195015045958133e-01

 140	1.400000000000001e+00
	-1.752351264712466e-15
	-1.579916175171440e-18
	-9.095423607770962e-15
	6.730975722034842e-05
	2.956902352998831e-03
	1.811759716301320e-03
	4.195044306621037e-01

 141	1.410000000000001e+00
	-1.754176824297125e-15
	-1.619009480045566e-18
	-9.100439649344630e-15
	6.810407630603187e-05
	2.957847938047280e-03
	1.841295711621454e-03
	4.195073581013436e-01

 142	1.420000000000001e+00
	-1.756023312880396e-15
	-1.658688355005286e-18
	-9.105270807674636e-15
	6.889810458937139e-05
	2.958742815083439e-03
	1.870840753325365e-03
	4.195102868402519e-01

 143	1.430000000000001e+00
	-1.757889663331266e-15
	-1.698967784894458e-18
	-9.109922868334989e-15
	6.969194195287251e-05
	2.959591918191104e-03
	1.900394361779326e-03
	4.195132168114673e-01

 144	1.440000000000001e+00
	-1.759774859280830e-15
	-1.739863064101724e-18
	-9.114401434663056e-15
	7.048568765332201e-05
	2.960399458154955e-03
	1.929956102901326e-03
	4.195161479527434e-01

 145	1.450000000000001e+00
	-1.761677933029808e-15
	-1.781389803537802e-18
	-9.118711932741000e-15
	7.127944023939551e-05
	2.961168993627973e-03
	1.959525581301474e-03
	4.195190802062405e-01

 146	1.460000000000001e+00
	-1.763597963524931e-15
	-1.823563937952949e-18
	-9.122859616301603e-15
	7.207329748349883e-05
	2.961903497047349e-03
	1.989102434106472e-03
	4.195220135178799e-01

 147	1.470000000000001e+00
	-1.765534074402998e-15
	-1.866401733597335e-18
	-9.126849571554871e-15
	7.286735632657958e-05
	2.962605415553506e-03
	2.018686325416953e-03
	4.195249478367586e-01

 148	1.480000000000001e+00
	-1.767485432101341e-15
	-1.909919796227907e-18
	-9.130686721931927e-15
	7.366171283472839e-05
	2.963276727171791e-03
	2.048276941348978e-03
	4.195278831146390e-01

 149	1.490000000000001e+00
	-1.769451244033374e-15
	-1.954135079466825e-18
	-9.134375832743451e-15
	7.445646216647532e-05
	2.963918992517963e-03
	2.077873985613926e-03
	4.195308193054710e-01

 150	1.500000000000001e+00
	-1.771430756827856e-15
	-1.999064893514921e-18
	-9.137921515750303e-15
	7.525169854975540e-05
	2.964533402286750e-03
	2.107477175593131e-03
	4.195337563649834e-01

 151	1.510000000000001e+00
	-1.773423254630448e-15
	-2.044726914225379e-18
	-9.141328233644224e-15
	7.604751526759731e-05
	2.965120820778944e-03
	2.137086238866596e-03
	4.195366942503174e-01

 152	1.520000000000001e+00
	-1.775428057466082e-15
	-2.091139192544066e-18
	-9.144600304437205e-15
	7.684400465165936e-05
	2.965681825716630e-03
	2.166700910157467e-03
	4.195396329196968e-01

 153	1.530000000000001e+00
	-1.777444519660713e-15
	-2.138320164320980e-18
	-9.147741905758074e-15
	7.764125808280210e-05
	2.966216744588484e-03
	2.196320928656393e-03
	4.195425723321456e-01
