Title: ** sch_path: /home/andylithia/openmpw/project-yatsuhashi-chip1/xschem/gmid_test/nmos_test.sch
Date: Sun Jul 17 22:51:45  2022
Plotname: DC transfer characteristic
Flags: real
No. Variables: 8
No. Points: 181
Variables:
	0	v(v-sweep)	voltage
	1	@m.xm1.msky130_fd_pr__nfet_01v8[cgb]	capacitance
	2	@m.xm1.msky130_fd_pr__nfet_01v8[cgd]	capacitance
	3	@m.xm1.msky130_fd_pr__nfet_01v8[cgs]	capacitance
	4	@m.xm1.msky130_fd_pr__nfet_01v8[gds]	admittance
	5	@m.xm1.msky130_fd_pr__nfet_01v8[gm]	admittance
	6	i(@m.xm1.msky130_fd_pr__nfet_01v8[id])	current
	7	v(@m.xm1.msky130_fd_pr__nfet_01v8[vth])	voltage
Values:
 0	0.000000000000000e+00
	-1.883497535760201e-15
	1.759272374229578e-19
	-1.295788323121736e-17
	3.244552090718715e-14
	7.480551793959855e-13
	2.333363339589254e-14
	7.506991121948117e-01

 1	1.000000000000000e-02
	-1.874494697576144e-15
	1.880989181934468e-19
	-1.382159602597790e-17
	4.438676944618667e-14
	1.030768628445857e-12
	3.215235610473878e-14
	7.506991121948117e-01

 2	2.000000000000000e-02
	-1.865603967105341e-15
	2.010127432694387e-19
	-1.475585857108637e-17
	6.071954351384288e-14
	1.420323542427448e-12
	4.430392888971027e-14
	7.506991121948122e-01

 3	3.000000000000000e-02
	-1.856821707587530e-15
	2.147201572733110e-19
	-1.576694192806876e-17
	8.305755138744080e-14
	1.957093928525956e-12
	6.104787076200903e-14
	7.506991121948138e-01

 4	4.000000000000000e-02
	-1.848144247100547e-15
	2.292786612502021e-19
	-1.686187001480662e-17
	1.136069415125447e-13
	2.696708826343023e-12
	8.411964884558775e-14
	7.506991121948152e-01

 5	5.000000000000000e-02
	-1.839567859695952e-15
	2.447524743905003e-19
	-1.804851824073234e-17
	1.553835868492189e-13
	3.715815219106021e-12
	1.159105071719140e-13
	7.506991121948166e-01

 6	6.000000000000000e-02
	-1.831088745292129e-15
	2.612131918521751e-19
	-1.933572093816468e-17
	2.125099694306700e-13
	5.120017333958521e-12
	1.597152266879016e-13
	7.506991121948194e-01

 7	7.000000000000001e-02
	-1.822703008313755e-15
	2.787404266923630e-19
	-2.073338776032373e-17
	2.906207863666579e-13
	7.054813838437748e-12
	2.200734691093142e-13
	7.506991121948227e-01

 8	8.000000000000000e-02
	-1.814406635068125e-15
	2.974224235642312e-19
	-2.225262921018796e-17
	3.974170347085617e-13
	9.720664275488047e-12
	3.032400391718410e-13
	7.506991121948278e-01

 9	9.000000000000000e-02
	-1.806195469849171e-15
	3.173566316330348e-19
	-2.390589146533948e-17
	5.434228450213634e-13
	1.339374261009480e-11
	4.178327324914887e-13
	7.506991121948342e-01

 10	9.999999999999999e-02
	-1.798065189758767e-15
	3.386502240762094e-19
	-2.570710067047527e-17
	7.430191308957080e-13
	1.845452284385231e-11
	5.757247943454913e-13
	7.506991121948434e-01

 11	1.100000000000000e-01
	-1.790011278233108e-15
	3.614205515226491e-19
	-2.767181687968276e-17
	1.015855122616001e-12
	2.542714957006839e-11
	7.932742893880071e-13
	7.506991121948565e-01

 12	1.200000000000000e-01
	-1.782028997259297e-15
	3.857955168289948e-19
	-2.981739784279579e-17
	1.388775669153996e-12
	3.503365789791819e-11
	1.093017473836482e-12
	7.506991121948737e-01

 13	1.300000000000000e-01
	-1.774113358264395e-15
	4.119138586638125e-19
	-3.216317284263713e-17
	1.898452377327171e-12
	4.826863608054435e-11
	1.506001145145743e-12
	7.506991121948977e-01

 14	1.400000000000000e-01
	-1.766259091656411e-15
	4.399253314510774e-19
	-3.473062680012079e-17
	2.594975043050217e-12
	6.650202647771486e-11
	2.074994832390829e-12
	7.506991121949310e-01

 15	1.500000000000000e-01
	-1.758460614994431e-15
	4.699907692818745e-19
	-3.754359486862878e-17
	3.546752984665352e-12
	9.162065013141442e-11
	2.858914330850536e-12
	7.506991121949769e-01

 16	1.600000000000000e-01
	-1.750711999764473e-15
	5.022820213895987e-19
	-4.062846773218041e-17
	4.847202731872518e-12
	1.262230103827351e-10
	3.938912739253613e-12
	7.506991121950396e-01

 17	1.700000000000000e-01
	-1.743006936740056e-15
	5.369817466262894e-19
	-4.401440779477868e-17
	6.623871159226473e-12
	1.738873828445676e-10
	5.426766534731956e-12
	7.506991121951267e-01

 18	1.800000000000000e-01
	-1.735338699914188e-15
	5.742830539725944e-19
	-4.773357638783928e-17
	9.050877987491688e-12
	2.395406811576053e-10
	7.476419735810268e-12
	7.506991121952462e-01

 19	1.900000000000000e-01
	-1.727700109005694e-15
	6.143889753270622e-19
	-5.182137201010364e-17
	1.236588082633003e-11
	3.299658490446026e-10
	1.029987271007578e-11
	7.506991121954109e-01

 20	2.000000000000000e-01
	-1.720083490571878e-15
	6.575117554932077e-19
	-5.631667942530783e-17
	1.689319964479983e-11
	4.544995896683216e-10
	1.418904631171011e-11
	7.506991121956373e-01

 21	2.100000000000000e-01
	-1.712480637806540e-15
	7.038719422453671e-19
	-6.126212914584719e-17
	2.307532630119606e-11
	6.259914910036706e-10
	1.954586136179290e-11
	7.506991121959502e-01

 22	2.200000000000001e-01
	-1.704882769174041e-15
	7.536972564466816e-19
	-6.670436638838601e-17
	3.151584323129451e-11
	8.621219240249850e-10
	2.692360882535853e-11
	7.506991121963803e-01

 23	2.300000000000001e-01
	-1.697280486133334e-15
	8.072212182924324e-19
	-7.269432795714826e-17
	4.303785714880573e-11
	1.187212026924849e-09
	3.708383019763695e-11
	7.506991121969732e-01

 24	2.400000000000001e-01
	-1.689663730348652e-15
	8.646815008069395e-19
	-7.928752464617005e-17
	5.876351737836134e-11
	1.634708079245023e-09
	5.107449310212343e-11
	7.506991121977890e-01

 25	2.500000000000001e-01
	-1.682021740973412e-15
	9.263179757837227e-19
	-8.654432560564227e-17
	8.022216632871971e-11
	2.250589229254489e-09
	7.033738641464655e-11
	7.506991121989131e-01

 26	2.600000000000001e-01
	-1.674343012838468e-15
	9.923704106167722e-19
	-9.453023964404519e-17
	1.094973378266845e-10
	3.098038033641815e-09
	9.685557841365005e-11
	7.506991122004595e-01

 27	2.700000000000001e-01
	-1.666615256680968e-15
	1.063075767284533e-18
	-1.033161865975155e-16
	1.494264116529213e-10
	4.263835794904042e-09
	1.333557579315925e-10
	7.506991122025884e-01

 28	2.800000000000001e-01
	-1.658825362920234e-15
	1.138665047670462e-18
	-1.129787496618971e-16
	2.038715591906824e-10
	5.867110048224401e-09
	1.835856841462567e-10
	7.506991122055180e-01

 29	2.900000000000001e-01
	-1.650959370923130e-15
	1.219359623201260e-18
	-1.236003969387726e-16
	2.780870826527926e-10
	8.071283889719888e-09
	2.526943014750321e-10
	7.506991122095490e-01

 30	3.000000000000001e-01
	-1.643002446200621e-15
	1.305366982445014e-18
	-1.352696574057035e-16
	3.792168905648956e-10
	1.110037442980713e-08
	3.477519893251277e-10
	7.506991122150932e-01

 31	3.100000000000001e-01
	-1.634938868531036e-15
	1.396875829047684e-18
	-1.480812331257767e-16
	5.169673539468343e-10
	1.526118381230303e-08
	4.784617767251625e-10
	7.506991122227175e-01

 32	3.200000000000001e-01
	-1.626752034598411e-15
	1.494050465617098e-18
	-1.621360258472023e-16
	7.045160347702651e-10
	2.097345017331131e-08
	6.581302855817082e-10
	7.506991122331967e-01

 33	3.300000000000001e-01
	-1.618424479341648e-15
	1.597024408483891e-18
	-1.775410523477170e-16
	9.597368909846986e-10
	2.881071338058280e-08
	9.049911244089895e-10
	7.506991122475957e-01

 34	3.400000000000001e-01
	-1.609937920796790e-15
	1.705893195387254e-18
	-1.944092191536354e-16
	1.306848938988726e-09
	3.955554378758763e-08
	1.244005278831804e-09
	7.506991122673695e-01

 35	3.500000000000001e-01
	-1.601273333732435e-15
	1.820706374776672e-18
	-2.128589238883542e-16
	1.778629706608471e-09
	5.427392956761906e-08
	1.709305031459937e-09
	7.506991122945089e-01

 36	3.600000000000002e-01
	-1.592411057765495e-15
	1.941458703182354e-18
	-2.330134478444307e-16
	2.419379179888655e-09
	7.441507008132317e-08
	2.347502884165979e-09
	7.506991123317333e-01

 37	3.700000000000002e-01
	-1.583330945825054e-15
	2.068080627241228e-18
	-2.550001028797775e-16
	3.288876688666348e-09
	1.019446261088184e-07
	3.222158137438651e-09
	7.506991123827496e-01

 38	3.800000000000002e-01
	-1.574012558717076e-15
	2.200428190109638e-18
	-2.789490959477861e-16
	4.467644867067931e-09
	1.395216644951991e-07
	4.419784897537778e-09
	7.506991124526040e-01

 39	3.900000000000002e-01
	-1.564435411034342e-15
	2.338272577830400e-18
	-3.049920770818237e-16
	6.063924072858747e-09
	1.907321027356183e-07
	6.057900194108996e-09
	7.506991125481505e-01

 40	4.000000000000002e-01
	-1.554579272653659e-15
	2.481289608097162e-18
	-3.332603420901473e-16
	8.222869725948343e-09
	2.603943432565301e-07
	8.295753153906422e-09
	7.506991126786786e-01

 41	4.100000000000002e-01
	-1.544424528473754e-15
	2.629049558396522e-18
	-3.638826701673302e-16
	1.113861525821613e-08
	3.549558180497304e-07
	1.134854821274345e-08
	7.506991128567397e-01

 42	4.200000000000002e-01
	-1.533952596801729e-15
	2.781007827286256e-18
	-3.969827895655864e-16
	1.506999419100755e-08
	4.830020124073298e-07
	1.550617713632125e-08
	7.506991130992425e-01

 43	4.300000000000002e-01
	-1.523146403862112e-15
	2.936497013939242e-18
	-4.326764816484617e-16
	2.036088244844445e-08
	6.559016461694068e-07
	2.115770177163967e-08
	7.506991134288807e-01

 44	4.400000000000002e-01
	-1.511990908306855e-15
	3.094721077250336e-18
	-4.710683549906613e-16
	2.746629742875789e-08
	8.886122134736948e-07
	2.882307060417302e-08
	7.506991138759803e-01

 45	4.500000000000002e-01
	-1.500473665450051e-15
	3.254752285238857e-18
	-5.122483461639225e-16
	3.698555719767783e-08
	1.200667831095586e-06
	3.919378583446621e-08
	7.506991144808755e-01

 46	4.600000000000002e-01
	-1.488585416431049e-15
	3.415531675778310e-18
	-5.562880313911781e-16
	4.970393497933434e-08
	1.617364815440688e-06
	5.318442877605609e-08
	7.506991152969110e-01

 47	4.700000000000003e-01
	-1.476320682914566e-15
	3.575873708876527e-18
	-6.032368616994169e-16
	6.664430194008421e-08
	2.171147917851818e-06
	7.199704875147587e-08
	7.506991163941992e-01

 48	4.800000000000003e-01
	-1.463678343647827e-15
	3.734475688985822e-18
	-6.531184613261183e-16
	8.913018223370257e-08
	2.903180186643581e-06
	9.720035680692126e-08
	7.506991178642388e-01

 49	4.900000000000003e-01
	-1.450662165664181e-15
	3.889932367417733e-18
	-7.059271522458800e-16
	1.188613826918006e-07
	3.865051271499862e-06
	1.308253611628085e-07
	7.506991198254930e-01

 50	5.000000000000002e-01
	-1.437281260633065e-15
	4.040755900173267e-18
	-7.616248838511762e-16
	1.580028321788873e-07
	5.120543614041048e-06
	1.754784574552428e-07
	7.506991224299853e-01

 51	5.100000000000002e-01
	-1.423550436268421e-15
	4.185401043257139e-18
	-8.201387531791219e-16
	2.092864034604320e-07
	6.747337103325512e-06
	2.344719872052858e-07
	7.506991258709160e-01

 52	5.200000000000002e-01
	-1.409490414195953e-15
	4.322295132057024e-18
	-8.813592952110723e-16
	2.761242481739481e-07
	8.838497754847743e-06
	3.119709011181833e-07
	7.506991303912148e-01

 53	5.300000000000002e-01
	-1.395127889464499e-15
	4.449872037877030e-18
	-9.451397031267670e-16
	3.627305585277219e-07
	1.150357577208755e-05
	4.131525004119664e-07
	7.506991362928607e-01

 54	5.400000000000003e-01
	-1.380495412977732e-15
	4.566608953786855e-18
	-1.011296104633528e-15
	4.742467637100808e-07
	1.486914597976600e-05
	5.443744922008913e-07
	7.506991439466812e-01

 55	5.500000000000003e-01
	-1.365631086280223e-15
	4.671064567493729e-18
	-1.079608973749536e-15
	6.168631646481773e-07
	1.907867028744219e-05
	7.133451220745395e-07
	7.506991538022781e-01

 56	5.600000000000003e-01
	-1.350578067862868e-15
	4.761916964174952e-18
	-1.149825700378977e-15
	7.979282029881697e-07
	2.429165112543703e-05
	9.292883557999485e-07
	7.506991663976615e-01

 57	5.700000000000003e-01
	-1.335383900739647e-15
	4.837999495142211e-18
	-1.221664276753767e-15
	1.026035312050733e-06
	3.068216645764569e-05
	1.203097361156853e-06
	7.506991823682024e-01

 58	5.800000000000003e-01
	-1.320099681617885e-15
	4.898332867391851e-18
	-1.294817995435235e-15
	1.311076953824856e-06
	3.843700364098337e-05
	1.547471091440468e-06
	7.506992024545989e-01

 59	5.900000000000003e-01
	-1.304779101606933e-15
	4.942151860376561e-18
	-1.368960993641349e-15
	1.664256208770481e-06
	4.775369967135305e-05
	1.977031445364640e-06
	7.506992275097127e-01

 60	6.000000000000003e-01
	-1.289477396209648e-15
	4.968925351308527e-18
	-1.443754428562929e-15
	2.098048090028235e-06
	5.883880517443472e-05
	2.508421685240524e-06
	7.506992585043065e-01

 61	6.100000000000003e-01
	-1.274250247607213e-15
	4.978368706823936e-18
	-1.518853032554970e-15
	2.626105212134101e-06
	7.190658938671364e-05
	3.160389564704293e-06
	7.506992965318978e-01

 62	6.200000000000003e-01
	-1.259152684526595e-15
	4.970448043572733e-18
	-1.593911778700004e-15
	3.263104914794847e-06
	8.717819461423859e-05
	3.953859825607397e-06
	7.506993428129844e-01

 63	6.300000000000003e-01
	-1.244238024127160e-15
	4.945376332970777e-18
	-1.668592387495644e-15
	4.024536749588110e-06
	1.048809698862664e-04
	4.911999447662173e-06
	7.506993986988553e-01

 64	6.400000000000003e-01
	-1.229556896534514e-15
	4.903601783889752e-18
	-1.742569423666419e-15
	4.926429985670334e-06
	1.252474327081748e-04
	6.060274896647743e-06
	7.506994656749280e-01

 65	6.500000000000004e-01
	-1.215156386346714e-15
	4.845789342838849e-18
	-1.815535765935612e-15
	5.985020640195376e-06
	1.485131022034345e-04
	7.426493985856706e-06
	7.506995453631949e-01

 66	6.600000000000004e-01
	-1.201079317315136e-15
	4.772796473449291e-18
	-1.887207278252047e-15
	7.216357303136533e-06
	1.749123801310311e-04
	9.040816931177018e-06
	7.506996395228663e-01

 67	6.700000000000004e-01
	-1.187363697253131e-15
	4.685644595929988e-18
	-1.957326563864516e-15
	8.635845996525978e-06
	2.046717627688464e-04
	1.093571333146105e-05
	7.506997500478664e-01

 68	6.800000000000004e-01
	-1.174042330861526e-15
	4.585487674815917e-18
	-2.025665738965480e-15
	1.025773783299220e-05
	2.379999485387568e-04
	1.314583591207565e-05
	7.506998789594648e-01

 69	6.900000000000004e-01
	-1.161142599318801e-15
	4.473579443564739e-18
	-2.092028215908330e-15
	1.209457017383563e-05
	2.750748389031204e-04
	1.570777958058624e-05
	7.507000283922270e-01

 70	7.000000000000004e-01
	-1.148686397759741e-15
	4.351240660723501e-18
	-2.156249533532203e-15
	1.415658219872548e-05
	3.160279691550283e-04
	1.865969695970635e-05
	7.507002005715866e-01

 71	7.100000000000004e-01
	-1.136690215568962e-15
	4.219827624578124e-18
	-2.218197311242905e-15
	1.645113788807211e-05
	3.609274891551215e-04
	2.204074985226405e-05
	7.507003977818471e-01

 72	7.200000000000004e-01
	-1.125165339957429e-15
	4.080702954945342e-18
	-2.277770432684778e-15
	1.898220079552992e-05
	4.097613590143459e-04
	2.589039010182747e-05
	7.507006223242352e-01

 73	7.300000000000004e-01
	-1.114118160600243e-15
	3.935209406016201e-18
	-2.334897583680547e-15
	2.174991235586989e-05
	4.624228267234476e-04
	3.024748214665268e-05
	7.507008764657109e-01

 74	7.400000000000004e-01
	-1.103550552070102e-15
	3.784647224751369e-18
	-2.389535278126419e-15
	2.475032567986341e-05
	5.187003983678798e-04
	3.514930121401852e-05
	7.507011623805326e-01

 75	7.500000000000004e-01
	-1.093460311172090e-15
	3.630255333234379e-18
	-2.441665505912044e-15
	2.797533785510304e-05
	5.782742981996777e-04
	4.063046245742975e-05
	7.507014820877818e-01

 76	7.600000000000005e-01
	-1.083841627776716e-15
	3.473196403869214e-18
	-2.491293130321343e-15
	3.141284578524418e-05
	6.407208037237589e-04
	4.672185355587242e-05
	7.507018373891010e-01

 77	7.700000000000005e-01
	-1.074685570042183e-15
	3.314545721663344e-18
	-2.538443150577418e-15
	3.504712607158975e-05
	7.055248817144555e-04
	5.344965255673140e-05
	7.507022298113922e-01

 78	7.800000000000005e-01
	-1.065980567707409e-15
	3.155283591902206e-18
	-2.583157930016107e-15
	3.885941288258554e-05
	7.721004010996878e-04
	6.083451128551217e-05
	7.507026605591850e-01

 79	7.900000000000005e-01
	-1.057712880152949e-15
	2.996290954355603e-18
	-2.625494473431686e-15
	4.282862450357620e-05
	8.398160908139538e-04
	6.889097168930481e-05
	7.507031304805859e-01

 80	8.000000000000005e-01
	-1.049867038945133e-15
	2.838347804061996e-18
	-2.665521819793556e-15
	4.693217392478602e-05
	9.080245898408977e-04
	7.762715970291937e-05
	7.507036400494189e-01

 81	8.100000000000005e-01
	-1.042426257430817e-15
	2.682133989147698e-18
	-2.703318599839533e-15
	5.114679398405953e-05
	9.760915822961955e-04
	8.704477248367482e-05
	7.507041893644841e-01

 82	8.200000000000005e-01
	-1.035372802520190e-15
	2.528231952500448e-18
	-2.738970792760146e-15
	5.544931317950304e-05
	1.043422179970924e-03
	9.713934522209962e-05
	7.507047781651198e-01

 83	8.300000000000005e-01
	-1.028688326014509e-15
	2.377131000579973e-18
	-2.772569702770487e-15
	5.981733193705274e-05
	1.109482331425265e-03
	1.079007581577685e-04
	7.507054058607852e-01

 84	8.400000000000005e-01
	-1.022354154674646e-15
	2.229232713552737e-18
	-2.804210165058586e-15
	6.422976715774583e-05
	1.173813924567195e-03
	1.193139265563029e-04
	7.507060715713112e-01

 85	8.500000000000005e-01
	-1.016351539685961e-15
	2.084857151201319e-18
	-2.833988981450730e-15
	6.866725143578112e-05
	1.236043197111750e-03
	1.313596078828227e-04
	7.507067741739865e-01

 86	8.600000000000005e-01
	-1.010661867277625e-15
	1.944249554351785e-18
	-2.862003579055766e-15
	7.311238939887052e-05
	1.295882892569233e-03
	1.440152608644607e-04
	7.507075123536768e-01

 87	8.700000000000006e-01
	-1.005266833037282e-15
	1.807587288397238e-18
	-2.888350879959479e-15
	7.754988542665159e-05
	1.353129183115640e-03
	1.572558986805502e-04
	7.507082846525963e-01

 88	8.800000000000006e-01
	-1.000148582969317e-15
	1.674986821256138e-18
	-2.913126366498068e-15
	8.196656407588333e-05
	1.407654688187141e-03
	1.710548905104879e-04
	7.507090895170656e-01

 89	8.900000000000006e-01
	-9.952898246246407e-16
	1.546510570924019e-18
	-2.936423324484297e-15
	8.635130736123599e-05
	1.459398976349794e-03
	1.853846794385619e-04
	7.507099253393937e-01

 90	9.000000000000006e-01
	-9.906739117280342e-16
	1.422173496487909e-18
	-2.958332245727153e-15
	9.069493260942311e-05
	1.508357812826068e-03
	2.002173980816682e-04
	7.507107904937901e-01

 91	9.100000000000006e-01
	-9.862849056886379e-16
	1.301949340444202e-18
	-2.978940371028296e-15
	9.499003206501018e-05
	1.554572181793037e-03
	2.155253748131848e-04
	7.507116833658947e-01

 92	9.200000000000006e-01
	-9.821076172379192e-16
	1.185776459189156e-18
	-2.998331355333537e-15
	9.923079180453680e-05
	1.598117838697519e-03
	2.312815323760057e-04
	7.507126023760322e-01

 93	9.300000000000006e-01
	-9.781276312292567e-16
	1.073563202739789e-18
	-3.016585037674605e-15
	1.034128035950982e-04
	1.639095882843177e-03
	2.474596868702674e-04
	7.507135459966509e-01

 94	9.400000000000006e-01
	-9.743313173804138e-16
	9.651928244028928e-19
	-3.033777299796815e-15
	1.075328796303834e-04
	1.677624613997358e-03
	2.640347588206353e-04
	7.507145127646353e-01

 95	9.500000000000006e-01
	-9.707058294652126e-16
	8.605279166722323e-19
	-3.049979998805006e-15
	1.115888768751960e-04
	1.713832761439708e-03
	2.809829097355973e-04
	7.507155012892723e-01

 96	9.600000000000006e-01
	-9.672390951793918e-16
	7.594143815986413e-19
	-3.065260960674933e-15
	1.155795351592378e-04
	1.747854050466321e-03
	2.982816177903379e-04
	7.507165102566645e-01

 97	9.700000000000006e-01
	-9.639197986294687e-16
	6.616849527551747e-19
	-3.079684022996285e-15
	1.195043311801548e-04
	1.779822993590992e-03
	3.159097054872134e-04
	7.507175384313429e-01

 98	9.800000000000006e-01
	-9.607373571304052e-16
	5.671622922077910e-19
	-3.093309116784413e-15
	1.233633491391989e-04
	1.809871752185031e-03
	3.338473307840549e-04
	7.507185846557498e-01

 99	9.900000000000007e-01
	-9.576818937531879e-16
	4.756616900633042e-19
	-3.106192378584558e-15
	1.271571677477092e-04
	1.838127899271922e-03
	3.520759515433689e-04
	7.507196478481626e-01

 100	1.000000000000001e+00
	-9.547442068401362e-16
	3.869933966189880e-19
	-3.118386285372863e-15
	1.308867627118547e-04
	1.864712916909570e-03
	3.705782714644203e-04
	7.507207269995393e-01

 101	1.010000000000001e+00
	-9.519157375050805e-16
	3.009646182416857e-19
	-3.129939805920780e-15
	1.345534234377823e-04
	1.889741275025845e-03
	3.893381740556158e-04
	7.507218211696682e-01

 102	1.020000000000001e+00
	-9.491885359577941e-16
	2.173812081766745e-19
	-3.140898563329511e-15
	1.381586825243553e-04
	1.913319957504897e-03
	4.083406497658738e-04
	7.507229294829160e-01

 103	1.030000000000001e+00
	-9.465552273363443e-16
	1.360490827859881e-19
	-3.151305004359962e-15
	1.417042565662029e-04
	1.935548322151193e-03
	4.275717201563357e-04
	7.507240511237999e-01

 104	1.040000000000001e+00
	-9.440089775962141e-16
	5.677539246369683e-20
	-3.161198571986696e-15
	1.451919968301337e-04
	1.956518201587199e-03
	4.470183619642057e-04
	7.507251853325656e-01

 105	1.050000000000001e+00
	-9.415434598894010e-16
	-2.063052516275471e-20
	-3.170615878299182e-15
	1.486238484596143e-04
	1.976314170845998e-03
	4.666684330774730e-04
	7.507263314008610e-01

 106	1.060000000000001e+00
	-9.391528217685218e-16
	-9.635638400154372e-20
	-3.179590875468911e-15
	1.520018169811796e-04
	1.995013923760999e-03
	4.865106017815087e-04
	7.507274886676132e-01

 107	1.070000000000001e+00
	-9.368316534683066e-16
	-1.705863565010078e-19
	-3.188155023006832e-15
	1.553279410171660e-04
	2.012688714039708e-03
	5.065342801314866e-04
	7.507286565151395e-01

 108	1.080000000000001e+00
	-9.345749574480086e-16
	-2.435006271988167e-19
	-3.196337449961494e-15
	1.586042702404010e-04
	2.029403828217951e-03
	5.267295619226072e-04
	7.507298343655296e-01

 109	1.090000000000001e+00
	-9.323781193213559e-16
	-3.152750731583177e-19
	-3.204165111063870e-15
	1.618328477319160e-04
	2.045219066755452e-03
	5.470871654497456e-04
	7.507310216773070e-01

 110	1.100000000000001e+00
	-9.302368802541951e-16
	-3.860810536048171e-19
	-3.211662936119179e-15
	1.650156960186328e-04
	2.060189216650055e-03
	5.675983810482729e-04
	7.507322179423658e-01

 111	1.110000000000001e+00
	-9.281473108724163e-16
	-4.560852929493674e-19
	-3.218853972187146e-15
	1.681548061725289e-04
	2.074364504427951e-03
	5.882550232705628e-04
	7.507334226831855e-01

 112	1.120000000000001e+00
	-9.261057866927057e-16
	-5.254498431539653e-19
	-3.225759518287997e-15
	1.712521294454803e-04
	2.087791022507400e-03
	6.090493874633062e-04
	7.507346354502931e-01

 113	1.130000000000001e+00
	-9.241089650651163e-16
	-5.943321130251129e-19
	-3.232399252528324e-15
	1.743095709950687e-04
	2.100511124998929e-03
	6.299742104570133e-04
	7.507358558199726e-01

 114	1.140000000000001e+00
	-9.221537635981862e-16
	-6.628849535322192e-19
	-3.238791351665426e-15
	1.773289853268529e-04
	2.112563791224321e-03
	6.510226350516451e-04
	7.507370833921938e-01

 115	1.150000000000001e+00
	-9.202373400235371e-16
	-7.312567896194867e-19
	-3.244952603225274e-15
	1.803121731389238e-04
	2.123984956800614e-03
	6.721881779735665e-04
	7.507383177887398e-01

 116	1.160000000000001e+00
	-9.183570734468251e-16
	-7.995917902241841e-19
	-3.250898510363402e-15
	1.832608793060038e-04
	2.134807813199094e-03
	6.934647009831807e-04
	7.507395586515241e-01

 117	1.170000000000001e+00
	-9.165105469247799e-16
	-8.680300693353582e-19
	-3.256643389712775e-15
	1.861767917840634e-04
	2.145063077378285e-03
	7.148463848255724e-04
	7.507408056410712e-01

 118	1.180000000000001e+00
	-9.146955313034503e-16
	-9.367079119310722e-19
	-3.262200462502200e-15
	1.890615412533407e-04
	2.154779233501647e-03
	7.363277057347189e-04
	7.507420584351434e-01

 119	1.190000000000001e+00
	-9.129099702500698e-16
	-1.005758019523581e-18
	-3.267581939255519e-15
	1.919167013487606e-04
	2.163982748962221e-03
	7.579034142231690e-04
	7.507433167275067e-01

 120	1.200000000000001e+00
	-9.111519664098643e-16
	-1.075309770838764e-18
	-3.272799098398255e-15
	1.947437893528755e-04
	2.172698267005989e-03
	7.795685159117978e-04
	7.507445802268097e-01

 121	1.210000000000001e+00
	-9.094197686191800e-16
	-1.145489493852280e-18
	-3.277862359106803e-15
	1.975442672483384e-04
	2.180948778217770e-03
	8.013182541770842e-04
	7.507458486555734e-01

 122	1.220000000000001e+00
	-9.077117601073872e-16
	-1.216420746026255e-18
	-3.282781348736941e-15
	2.003195430452129e-04
	2.188755773041140e-03
	8.231480944155822e-04
	7.507471217492701e-01

 123	1.230000000000001e+00
	-9.060264476217750e-16
	-1.288224600125915e-18
	-3.287564965165281e-15
	2.030709723136929e-04
	2.196139377371610e-03
	8.450537097463210e-04
	7.507483992554939e-01

 124	1.240000000000001e+00
	-9.043624514119020e-16
	-1.361019933474143e-18
	-3.292221434370277e-15
	2.057998598655284e-04
	2.203118473107811e-03
	8.670309679915518e-04
	7.507496809331961e-01

 125	1.250000000000001e+00
	-9.027184960125701e-16
	-1.434923718907692e-18
	-3.296758363569367e-15
	2.085074615380240e-04
	2.209710805381177e-03
	8.890759197941928e-04
	7.507509665519971e-01

 126	1.260000000000001e+00
	-9.010934017674689e-16
	-1.510051316062946e-18
	-3.301182790216830e-15
	2.111949860432641e-04
	2.215933078019415e-03
	9.111847877468061e-04
	7.507522558915469e-01

 127	1.270000000000001e+00
	-8.994860770385719e-16
	-1.586516761922728e-18
	-3.305501227153470e-15
	2.138635968525022e-04
	2.221801038638712e-03
	9.333539564215635e-04
	7.507535487409487e-01

 128	1.280000000000001e+00
	-8.978955110495529e-16
	-1.664433059829726e-18
	-3.309719704184790e-15
	2.165144140916776e-04
	2.227329554607761e-03
	9.555799632039401e-04
	7.507548448982194e-01

 129	1.290000000000001e+00
	-8.963207673145469e-16
	-1.743912466396781e-18
	-3.313843806349482e-15
	2.191485164290053e-04
	2.232532680985621e-03
	9.778594898445050e-04
	7.507561441698002e-01

 130	1.300000000000001e+00
	-8.947609776067390e-16
	-1.825066775947803e-18
	-3.317878709124848e-15
	2.217669429396920e-04
	2.237423721406132e-03
	1.000189354653568e-03
	7.507574463700986e-01

 131	1.310000000000001e+00
	-8.932153364242600e-16
	-1.908007602287617e-18
	-3.321829210800784e-15
	2.243706949362184e-04
	2.242015282764452e-03
	1.022566505272582e-03
	7.507587513210690e-01

 132	1.320000000000001e+00
	-8.916830959137721e-16
	-1.992846657749372e-18
	-3.325699762239228e-15
	2.269607377553908e-04
	2.246319324456088e-03
	1.044988011964179e-03
	7.507600588518198e-01

 133	1.330000000000001e+00
	-8.901635612149945e-16
	-2.079696029586878e-18
	-3.329494494221463e-15
	2.295380024956528e-04
	2.250347202824970e-03
	1.067451061369763e-03
	7.507613687982505e-01

 134	1.340000000000001e+00
	-8.886560861920111e-16
	-2.168668453888599e-18
	-3.333217242572007e-15
	2.321033876999907e-04
	2.254109711394010e-03
	1.089952950689725e-03
	7.507626810027086e-01

 135	1.350000000000001e+00
	-8.871600695197963e-16
	-2.259877587275223e-18
	-3.336871571234349e-15
	2.346577609812745e-04
	2.257617117378247e-03
	1.112491082246664e-03
	7.507639953136790e-01

 136	1.360000000000001e+00
	-8.856749510967596e-16
	-2.353438276724548e-18
	-3.340460793461343e-15
	2.372019605880989e-04
	2.260879194916345e-03
	1.135062958396732e-03
	7.507653115854789e-01

 137	1.370000000000001e+00
	-8.842002087563711e-16
	-2.449466827923094e-18
	-3.343987991270969e-15
	2.397367969101617e-04
	2.263905255399848e-03
	1.157666176758207e-03
	7.507666296779860e-01

 138	1.380000000000001e+00
	-8.827353552530112e-16
	-2.548081272607009e-18
	-3.347456033307018e-15
	2.422630539230033e-04
	2.266704175230468e-03
	1.180298425730012e-03
	7.507679494563744e-01

 139	1.390000000000001e+00
	-8.812799354991695e-16
	-2.649401635395291e-18
	-3.350867591233540e-15
	2.447814905725481e-04
	2.269284421292894e-03
	1.202957480275935e-03
	7.507692707908693e-01

 140	1.400000000000001e+00
	-8.798335240329671e-16
	-2.753550200659166e-18
	-3.354225154782036e-15
	2.472928421003690e-04
	2.271654074393453e-03
	1.225641197952993e-03
	7.507705935565135e-01

 141	1.410000000000001e+00
	-8.783957226966179e-16
	-2.860651780005681e-18
	-3.357531045561090e-15
	2.497978213109779e-04
	2.273820850882775e-03
	1.248347515164756e-03
	7.507719176329516e-01

 142	1.420000000000001e+00
	-8.769661585080952e-16
	-2.970833980981631e-18
	-3.360787429729444e-15
	2.522971197827158e-04
	2.275792122652639e-03
	1.271074443622412e-03
	7.507732429042215e-01

 143	1.430000000000001e+00
	-8.755444817096766e-16
	-3.084227477629864e-18
	-3.363996329625527e-15
	2.547914090240304e-04
	2.277574935673131e-03
	1.293820066998209e-03
	7.507745692585591e-01

 144	1.440000000000001e+00
	-8.741303639783957e-16
	-3.200966283550197e-18
	-3.367159634438984e-15
	2.572813415770832e-04
	2.279176027215319e-03
	1.316582537757421e-03
	7.507758965882156e-01

 145	1.450000000000001e+00
	-8.727234967847243e-16
	-3.321188028140786e-18
	-3.370279110002731e-15
	2.597675520707054e-04
	2.280601841886662e-03
	1.339360074156341e-03
	7.507772247892790e-01

 146	1.460000000000001e+00
	-8.713235898868610e-16
	-3.445034236708683e-18
	-3.373356407777847e-15
	2.622506582248033e-04
	2.281858546590736e-03
	1.362150957395020e-03
	7.507785537615113e-01

 147	1.470000000000001e+00
	-8.699303699491720e-16
	-3.572650615161043e-18
	-3.376393073097478e-15
	2.647312618083235e-04
	2.282952044509528e-03
	1.384953528914486e-03
	7.507798834081887e-01

 148	1.480000000000001e+00
	-8.685435792742080e-16
	-3.704187339999170e-18
	-3.379390552730627e-15
	2.672099495528995e-04
	2.283887988194758e-03
	1.407766187829142e-03
	7.507812136359527e-01

 149	1.490000000000001e+00
	-8.671629746386634e-16
	-3.839799354358493e-18
	-3.382350201821579e-15
	2.696872940242707e-04
	2.284671791844777e-03
	1.430587388485810e-03
	7.507825443546674e-01

 150	1.500000000000001e+00
	-8.657883262244665e-16
	-3.979646670848348e-18
	-3.385273290256086e-15
	2.721638544535436e-04
	2.285308642834822e-03
	1.453415638141623e-03
	7.507838754772833e-01

 151	1.510000000000001e+00
	-8.644194166369054e-16
	-4.123894681966492e-18
	-3.388161008501144e-15
	2.746401775303079e-04
	2.285803512560872e-03
	1.476249494753640e-03
	7.507852069197096e-01

 152	1.520000000000001e+00
	-8.630560400024350e-16
	-4.272714478875493e-18
	-3.391014472961300e-15
	2.771167981595652e-04
	2.286161166650831e-03
	1.499087564873558e-03
	7.507865386006912e-01

 153	1.530000000000001e+00
	-8.616980011393957e-16
	-4.426283179348530e-18
	-3.393834730890754e-15
	2.795942401843746e-04
	2.286386174591085e-03
	1.521928501641494e-03
	7.507878704416899e-01

 154	1.540000000000001e+00