Title: ** sch_path: /home/andylithia/openmpw/project-yatsuhashi-chip1/xschem/gmid_test/nmos_test.sch
Date: Tue Jul 19 23:15:45  2022
Plotname: DC transfer characteristic
Flags: real
No. Variables: 8
No. Points: 181
Variables:
	0	v(v-sweep)	voltage
	1	@m.xm1.msky130_fd_pr__nfet_01v8[cgb]	capacitance
	2	@m.xm1.msky130_fd_pr__nfet_01v8[cgd]	capacitance
	3	@m.xm1.msky130_fd_pr__nfet_01v8[cgs]	capacitance
	4	@m.xm1.msky130_fd_pr__nfet_01v8[gds]	admittance
	5	@m.xm1.msky130_fd_pr__nfet_01v8[gm]	admittance
	6	i(@m.xm1.msky130_fd_pr__nfet_01v8[id])	current
	7	v(@m.xm1.msky130_fd_pr__nfet_01v8[vth])	voltage
Values:
 0	0.000000000000000e+00
	-2.460581479422718e-15
	3.831927386982670e-19
	-1.373154840259356e-15
	6.164802384464014e-09
	2.805954536723859e-07
	2.223718689757374e-08
	4.452288183041721e-01

 1	1.000000000000000e-02
	-2.437509272287117e-15
	3.907708494898720e-19
	-1.418942396262988e-15
	6.989515708892272e-09
	3.179144806111738e-07
	2.522590876176168e-08
	4.452288185429966e-01

 2	2.000000000000000e-02
	-2.414375837773930e-15
	3.982722375432807e-19
	-1.465704833134068e-15
	7.923099024368509e-09
	3.601157240927652e-07
	2.861174209962346e-08
	4.452288188135638e-01

 3	3.000000000000000e-02
	-2.391187561766585e-15
	4.056832337515960e-19
	-1.513429849074821e-15
	8.979626400821435e-09
	4.078227396606500e-07
	3.244656621366937e-08
	4.452288191200204e-01

 4	4.000000000000000e-02
	-2.367951462038881e-15
	4.129899050713612e-19
	-1.562103077987366e-15
	1.017493111914446e-08
	4.617360583297106e-07
	3.678887366169524e-08
	4.452288194670427e-01

 5	5.000000000000000e-02
	-2.344675175369882e-15
	4.201780939294454e-19
	-1.611708068472911e-15
	1.152681353391911e-08
	5.226422664799582e-07
	4.170458460410012e-08
	4.452288198599056e-01

 6	6.000000000000000e-02
	-2.321366941658829e-15
	4.272334601100876e-19
	-1.662226271400864e-15
	1.305527111706401e-08
	5.914241033236665e-07
	4.726795694971765e-08
	4.452288203045505e-01

 7	7.000000000000001e-02
	-2.298035585023261e-15
	4.341415249304445e-19
	-1.713637036432026e-15
	1.478275258063705e-08
	6.690716874091916e-07
	5.356260302255400e-08
	4.452288208076672e-01

 8	8.000000000000000e-02
	-2.274690491887713e-15
	4.408877174858705e-19
	-1.765917617825390e-15
	1.673443804500686e-08
	7.566949972209018e-07
	6.068262465271528e-08
	4.452288213767886e-01

 9	9.000000000000000e-02
	-2.251341586095494e-15
	4.474574227202522e-19
	-1.819043189797578e-15
	1.893854726733384e-08
	8.555377467748748e-07
	6.873387992251291e-08
	4.452288220203873e-01

 10	9.999999999999999e-02
	-2.227999301101700e-15
	4.538360310524856e-19
	-1.872986871638284e-15
	2.142667796883564e-08
	9.669928156542304e-07
	7.783539629790344e-08
	4.452288227479942e-01

 11	1.100000000000000e-01
	-2.204674549331547e-15
	4.600089892677423e-19
	-1.927719762715499e-15
	2.423417629083190e-08
	1.092619414717846e-06
	8.812094657581097e-08
	4.452288235703279e-01

 12	1.200000000000000e-01
	-2.181378688814128e-15
	4.659618523620666e-19
	-1.983210987430477e-15
	2.740054136121710e-08
	1.234162194376595e-06
	9.974080601492304e-08
	4.452288244994267e-01

 13	1.300000000000000e-01
	-2.158123487227364e-15
	4.716803360116142e-19
	-2.039427750105306e-15
	3.096986585594899e-08
	1.393572532571008e-06
	1.128637112333915e-07
	4.452288255488188e-01

 14	1.400000000000000e-01
	-2.134921083514882e-15
	4.771503693230078e-19
	-2.096335399707375e-15
	3.499131428456169e-08
	1.573032275191617e-06
	1.276790440013846e-07
	4.452288267336896e-01

 15	1.500000000000000e-01
	-2.111783947259771e-15
	4.823581475103646e-19
	-2.153897504233916e-15
	3.951964050369278e-08
	1.774980243497453e-06
	1.443992659870989e-07
	4.452288280710857e-01

 16	1.600000000000000e-01
	-2.088724836022861e-15
	4.872901841365569e-19
	-2.212075934499047e-15
	4.461574565653731e-08
	2.002141871984507e-06
	1.632626338984910e-07
	4.452288295801338e-01

 17	1.700000000000000e-01
	-2.065756750874525e-15
	4.919333625521864e-19
	-2.270830956984963e-15
	5.034727733645573e-08
	2.257562396976776e-06
	1.845362283743385e-07
	4.452288312822880e-01

 18	1.800000000000000e-01
	-2.042892890368290e-15
	4.962749861655365e-19
	-2.330121335339659e-15
	5.678927026675341e-08
	2.544644081710274e-06
	2.085193345006455e-07
	4.452288332016038e-01

 19	1.900000000000000e-01
	-2.020146603221783e-15
	5.003028271803519e-19
	-2.389904440026703e-15
	6.402482816270603e-08
	2.867188038403762e-06
	2.355472170514289e-07
	4.452288353650500e-01

 20	2.000000000000000e-01
	-1.997531339985327e-15
	5.040051734458575e-19
	-2.450136365559242e-15
	7.214584568330394e-08
	3.229441291973369e-06
	2.659953395703434e-07
	4.452288378028548e-01

 21	2.100000000000000e-01
	-1.975060603990562e-15
	5.073708730749896e-19
	-2.510772054681327e-15
	8.125376847670660e-08
	3.636149823349481e-06
	3.002840833146728e-07
	4.452288405488915e-01

 22	2.200000000000001e-01
	-1.952747901880868e-15
	5.103893765022963e-19
	-2.571765428795798e-15
	9.146038826427771e-08
	4.092618431754008e-06
	3.388840299628427e-07
	4.452288436411250e-01

 23	2.300000000000001e-01
	-1.930606694031485e-15
	5.130507756717820e-19
	-2.633069523880893e-15
	1.028886686848292e-07
	4.604778362749676e-06
	3.823218809126963e-07
	4.452288471220863e-01

 24	2.400000000000001e-01
	-1.908650345170545e-15
	5.153458400681218e-19
	-2.694636631086438e-15
	1.156735962278133e-07
	5.179263758999099e-06
	4.311870960144656e-07
	4.452288510394432e-01

 25	2.500000000000001e-01
	-1.886892075512016e-15
	5.172660493299176e-19
	-2.756418441158687e-15
	1.299630490208793e-07
	5.823498098423055e-06
	4.861393456938621e-07
	4.452288554466093e-01

 26	2.600000000000001e-01
	-1.865344912708489e-15
	5.188036222131222e-19
	-2.818366191807488e-15
	1.459186745074422e-07
	6.545791882672653e-06
	5.479168825677452e-07
	4.452288604034580e-01

 27	2.700000000000001e-01
	-1.844021644925076e-15
	5.199515417036276e-19
	-2.880430817104686e-15
	1.637167651652919e-07
	7.355452917936183e-06
	6.173459516979281e-07
	4.452288659771035e-01

 28	2.800000000000001e-01
	-1.822934775326347e-15
	5.207035761122904e-19
	-2.942563097985375e-15
	1.835491193967072e-07
	8.262910577609086e-06
	6.953513723149716e-07
	4.452288722428138e-01

 29	2.900000000000001e-01
	-1.802096478255388e-15
	5.210542960200597e-19
	-3.004713812917744e-15
	2.056238725934767e-07
	9.279855436661767e-06
	7.829684377839425e-07
	4.452288792850019e-01

 30	3.000000000000001e-01
	-1.781518557368930e-15
	5.209990869787737e-19
	-3.066833887808528e-15
	2.301662811856594e-07
	1.041939560163731e-05
	8.813562942106346e-07
	4.452288871983932e-01

 31	3.100000000000001e-01
	-1.761212405974203e-15
	5.205341579092890e-19
	-3.128874544224337e-15
	2.574194402737455e-07
	1.169623090582223e-05
	9.918129706328202e-07
	4.452288960893062e-01

 32	3.200000000000001e-01
	-1.741188969792872e-15
	5.196565451773017e-19
	-3.190787445029659e-15
	2.876449132836979e-07
	1.312684587082849e-05
	1.115792244192186e-06
	4.452289060771082e-01

 33	3.300000000000001e-01
	-1.721458712354865e-15
	5.183641123644511e-19
	-3.252524836572726e-15
	3.211232500522374e-07
	1.472972192585485e-05
	1.254922530765407e-06
	4.452289172958724e-01

 34	3.400000000000001e-01
	-1.702031583200518e-15
	5.166555457887569e-19
	-3.314039686589537e-15
	3.581543679370858e-07
	1.652556879519103e-05
	1.411027993684836e-06
	4.452289298962137e-01

 35	3.500000000000001e-01
	-1.682916989043702e-15
	5.145303458647905e-19
	-3.375285817042409e-15
	3.990577690573003e-07
	1.853757418441086e-05
	1.586152058545759e-06
	4.452289440473743e-01

 36	3.600000000000002e-01
	-1.664123768021736e-15
	5.119888144272824e-19
	-3.436218031163766e-15
	4.441725657184686e-07
	2.079166989028166e-05
	1.782583508554981e-06
	4.452289599395283e-01

 37	3.700000000000002e-01
	-1.645660167130141e-15
	5.090320381746969e-19
	-3.496792234035521e-15
	4.938572855883223e-07
	2.331681120841637e-05
	2.002885310058169e-06
	4.452289777863798e-01

 38	3.800000000000002e-01
	-1.627533822912392e-15
	5.056618684179134e-19
	-3.556965546100725e-15
	5.484894283895052e-07
	2.614526500528761e-05
	2.249926279277693e-06
	4.452289978280011e-01

 39	3.900000000000002e-01
	-1.609751745446649e-15
	5.018808973473453e-19
	-3.616696409073644e-15
	6.084647468925309e-07
	2.931290005995050e-05
	2.526915646325093e-06
	4.452290203340103e-01

 40	4.000000000000002e-01
	-1.592320305643807e-15
	4.976924310541068e-19
	-3.675944683789197e-15
	6.741962269454036e-07
	3.285947128649302e-05
	2.837440498782313e-06
	4.452290456069956e-01

 41	4.100000000000002e-01
	-1.575245225844142e-15
	4.931004595630418e-19
	-3.734671739608053e-15
	7.461127442686094e-07
	3.682888726407976e-05
	3.185505992424967e-06
	4.452290739862693e-01

 42	4.200000000000002e-01
	-1.558531573673756e-15
	4.881096241517527e-19
	-3.792840535072235e-15
	8.246573798587305e-07
	4.126944819788231e-05
	3.575578099431638e-06
	4.452291058519128e-01

 43	4.300000000000002e-01
	-1.542183759097210e-15
	4.827251822434066e-19
	-3.850415689584460e-15
	9.102853811271883e-07
	4.623403911164751e-05
	4.012628523961555e-06
	4.452291416290637e-01

 44	4.400000000000002e-01
	-1.526205534579585e-15
	4.769529701719653e-19
	-3.907363545961932e-15
	1.003461762357684e-06
	5.178026086365598e-05
	4.502181251735843e-06
	4.452291817924521e-01

 45	4.500000000000002e-01
	-1.510599998249646e-15
	4.707993641246557e-19
	-3.963652223792119e-15
	1.104658545650923e-06
	5.797047964644887e-05
	5.050360016163213e-06
	4.452292268711198e-01

 46	4.600000000000002e-01
	-1.495369599936274e-15
	4.642712395695720e-19
	-4.019251663592266e-15
	1.214351652131103e-06
	6.487177416895494e-05
	5.663935762325063e-06
	4.452292774532437e-01

 47	4.700000000000003e-01
	-1.480516149933033e-15
	4.573759294763180e-19
	-4.074133661845164e-15
	1.333017462642448e-06
	7.255575894051133e-05
	6.350372977529479e-06
	4.452293341909785e-01

 48	4.800000000000003e-01
	-1.466040830330405e-15
	4.501211816342807e-19
	-4.128271897051018e-15
	1.461129077225547e-06
	8.109826220259140e-05
	7.117873541105585e-06
	4.452293978052180e-01

 49	4.900000000000003e-01
	-1.451944208742576e-15
	4.425151153664473e-19
	-4.181641946997889e-15
	1.599152313023251e-06
	9.057883830326394e-05
	7.975416536799706e-06
	4.452294690901315e-01

 50	5.000000000000002e-01
	-1.438226254244877e-15
	4.345661779275589e-19
	-4.234221297510919e-15
	1.747541490554877e-06
	1.010800968745753e-04
	8.932792280786452e-06
	4.452295489173040e-01

 51	5.100000000000002e-01
	-1.424886355330144e-15
	4.262831008644672e-19
	-4.285989342992217e-15
	1.906735068094104e-06
	1.126868352008011e-04
	1.000062866086520e-05
	4.452296382393490e-01

 52	5.200000000000002e-01
	-1.411923339686118e-15
	4.176748566017716e-19
	-4.336927379110186e-15
	2.077151192740355e-06
	1.254849657329710e-04
	1.119040777298168e-05
	4.452297380927517e-01

 53	5.300000000000002e-01
	-1.399335495592585e-15
	4.087506155011019e-19
	-4.387018588036871e-15
	2.259183244218384e-06
	1.395602377963706e-04
	1.251447079518620e-05
	4.452298495997577e-01

 54	5.400000000000003e-01
	-1.387120594735466e-15
	3.995197036251969e-19
	-4.436248016666069e-15
	2.453195453032518e-06
	1.549967610250359e-04
	1.398600907123835e-05
	4.452299739691041e-01

 55	5.500000000000003e-01
	-1.375275916235644e-15
	3.899915614193326e-19
	-4.484602548273010e-15
	2.659518677938397e-06
	1.718753476864961e-04
	1.561903949908944e-05
	4.452301124953574e-01

 56	5.600000000000003e-01
	-1.363798271692810e-15
	3.801757035041414e-19
	-4.532070868098015e-15
	2.878446428451356e-06
	1.902717014459490e-04
	1.742836254300821e-05
	4.452302665566780e-01

 57	5.700000000000003e-01
	-1.352684031048781e-15
	3.700816797538429e-19
	-4.578643423352635e-15
	3.110231216071023e-06
	2.102544907520791e-04
	1.942950151728939e-05
	4.452304376108070e-01

 58	5.800000000000003e-01
	-1.341929149080612e-15
	3.597190378145673e-19
	-4.624312378156664e-15
	3.355081312974615e-06
	2.318833552914732e-04
	2.163862222371889e-05
	4.452306271891601e-01

 59	5.900000000000003e-01
	-1.331529192340747e-15
	3.490972871971467e-19
	-4.669071563919772e-15
	3.613157989181465e-06
	2.552069031680878e-04
	2.407243255720484e-05
	4.452308368888835e-01

 60	6.000000000000003e-01
	-1.321479366369974e-15
	3.382258650598543e-19
	-4.712916425680892e-15
	3.884573288827408e-06
	2.802607639039996e-04
	2.674806231000855e-05
	4.452310683628603e-01

 61	6.100000000000003e-01
	-1.311774543018059e-15
	3.271141037769199e-19
	-4.755843964914288e-15
	4.169388393580235e-06
	3.070657673429787e-04
	2.968292408365874e-05
	4.452313233076431e-01

 62	6.200000000000003e-01
	-1.302409287717137e-15
	3.157712003710785e-19
	-4.797852679302155e-15
	4.467612606872920e-06
	3.356263204737287e-04
	3.289455693119318e-05
	4.452316034494473e-01

 63	6.300000000000003e-01
	-1.293377886563511e-15
	3.042061878697880e-19
	-4.838942499961587e-15
	4.779202977139469e-06
	3.659290526310209e-04
	3.640045506796712e-05
	4.452319105283176e-01

 64	6.400000000000003e-01
	-1.284674373074769e-15
	2.924279086287931e-19
	-4.879114726597923e-15
	5.104064562281054e-06
	3.979417942408987e-04
	4.021788467048002e-05
	4.452322462807456e-01

 65	6.500000000000004e-01
	-1.276292554500415e-15
	2.804449896504185e-19
	-4.918371961038598e-15
	5.442051321870629e-06
	4.316129452577220e-04
	4.436369239199868e-05
	4.452326124210393e-01

 66	6.600000000000004e-01
	-1.268226037575868e-15
	2.682658199089497e-19
	-4.956718039581016e-15
	5.792967608795093e-06
	4.668712769698186e-04
	4.885410972502424e-05
	4.452330106218172e-01

 67	6.700000000000004e-01
	-1.260468253621136e-15
	2.558985296818837e-19
	-4.994157964565716e-15
	6.156570218742232e-06
	5.036261954660702e-04
	5.370455770182677e-05
	4.452334424940935e-01

 68	6.800000000000004e-01
	-1.253012482896967e-15
	2.433509718721025e-19
	-5.030697835562622e-15
	6.532570944661892e-06
	5.417684775350850e-04
	5.892945661997215e-05
	4.452339095673987e-01

 69	6.900000000000004e-01
	-1.245851878142438e-15
	2.306307052944768e-19
	-5.066344780533118e-15
	6.920639574422134e-06
	5.811714710747860e-04
	6.454204549333392e-05
	4.452344132704483e-01

 70	7.000000000000004e-01
	-1.238979487228874e-15
	2.177449798888175e-19
	-5.101106887305371e-15
	7.320407263540905e-06
	6.216927333016579e-04
	7.055421575419130e-05
	4.452349549128539e-01

 71	7.100000000000004e-01
	-1.232388274875574e-15
	2.047007238112798e-19
	-5.134993135674005e-15
	7.731470211144436e-06
	6.631760622744607e-04
	7.697636337337848e-05
	4.452355356683689e-01

 72	7.200000000000004e-01
	-1.226071143382751e-15
	1.915045323461066e-19
	-5.168013330409334e-15
	8.153393566073216e-06
	7.054538615365970e-04
	8.381726303861819e-05
	4.452361565600628e-01

 73	7.300000000000004e-01
	-1.220020952346914e-15
	1.781626585726641e-19
	-5.200178035434438e-15
	8.585715491090068e-06
	7.483497649410306e-04
	9.108396736152919e-05
	4.452368184478644e-01

 74	7.400000000000004e-01
	-1.214230537332818e-15
	1.646810057135986e-19
	-5.231498509402750e-15
	9.027951316116496e-06
	7.916814396446784e-04
	9.878173330490224e-05
	4.452375220187030e-01

 75	7.500000000000004e-01
	-1.208692727484752e-15
	1.510651210852374e-19
	-5.261986642882521e-15
	9.479597715936189e-06
	8.352634802725902e-04
	1.069139771725945e-04
	4.452382677795282e-01

 76	7.600000000000005e-01
	-1.203400362067781e-15
	1.373201915644974e-19
	-5.291654897329486e-15
	9.940136853458346e-06
	8.789103064962955e-04
	1.154822586268963e-04
	4.452390560532704e-01

 77	7.700000000000005e-01
	-1.198346305937027e-15
	1.234510404834465e-19
	-5.320516246004112e-15
	1.040904043601698e-05
	9.224389795963689e-04
	1.244862933340762e-04
	4.452398869778180e-01

 78	7.800000000000005e-01
	-1.193523463939683e-15
	1.094621258584866e-19
	-5.348584116966116e-15
	1.088577363894473e-05
	9.656718605805680e-04
	1.339239930271691e-04
	4.452407605079091e-01

 79	7.900000000000005e-01
	-1.188924794260680e-15
	9.535753985938322e-20
	-5.375872338255842e-15
	1.136979885748973e-05
	1.008439042487126e-03
	1.437915310495792e-04
	4.452416764198069e-01

 80	8.000000000000005e-01
	-1.184543320728402e-15
	8.114100942175843e-20
	-5.402395085350252e-15
	1.186057925480841e-05
	1.050580501852391e-03
	1.540834308305929e-04
	4.452426343185136e-01

 81	8.100000000000005e-01
	-1.180372144101767e-15
	6.681589790696009e-20
	-5.428166830960394e-15
	1.235758208009417e-05
	1.091947928118446e-03
	1.647926742629935e-04
	4.452436336472715e-01

 82	8.200000000000005e-01
	-1.176404452364282e-15
	5.238520771280624e-20
	-5.453202297218006e-15
	1.286028173679353e-05
	1.132406204147383e-03
	1.759108266139052e-04
	4.452446736989617e-01

 83	8.300000000000005e-01
	-1.172633530054463e-15
	3.785158374180179e-20
	-5.477516410280396e-15
	1.336816258625463e-05
	1.171834525193827e-03
	1.874281744042978e-04
	4.452457536291085e-01

 84	8.400000000000005e-01
	-1.169052766665114e-15
	2.321731763364511e-20
	-5.501124257366277e-15
	1.388072147705192e-05
	1.210127156972005e-03
	1.993338726349009e-04
	4.452468724700441e-01

 85	8.500000000000005e-01
	-1.165655664146630e-15
	8.484352673753719e-21
	-5.524041046219765e-15
	1.439746999463638e-05
	1.247193845279555e-03
	2.116160978042107e-04
	4.452480291459109e-01

 86	8.600000000000005e-01
	-1.162435843551622e-15
	-6.345710708560693e-21
	-5.546282066985942e-15
	1.491793642991576e-05
	1.282959899610019e-03
	2.242622033414471e-04
	4.452492224881152e-01

 87	8.700000000000006e-01
	-1.159387050859738e-15
	-2.127160893401814e-20
	-5.567862656468939e-15
	1.544166746890394e-05
	1.317365981061850e-03
	2.372588743435759e-04
	4.452504512508831e-01

 88	8.800000000000006e-01
	-1.156503162022812e-15
	-3.629240883697728e-20
	-5.588798164732563e-15
	1.596822960872207e-05
	1.350367630549316e-03
	2.505922788393660e-04
	4.452517141266389e-01

 89	8.900000000000006e-01
	-1.153778187271217e-15
	-5.140750087208652e-20
	-5.609103923993932e-15
	1.649721030802391e-05
	1.381934576889901e-03
	2.642482131834728e-04
	4.452530097609117e-01

 90	9.000000000000006e-01
	-1.151206274722707e-15
	-6.661659203243640e-20
	-5.628795219752202e-15
	1.702821888235693e-05
	1.412049865939278e-03
	2.782122395888640e-04
	4.452543367665612e-01

 91	9.100000000000006e-01
	-1.148781713335092e-15
	-8.191969854325745e-20
	-5.647887264087811e-15
	1.756088715708162e-05
	1.440708851805371e-03
	2.924698142182052e-04
	4.452556937371280e-01

 92	9.200000000000006e-01
	-1.146498935243900e-15
	-9.731713839039745e-20
	-5.666395171061513e-15
	1.809486989225033e-05
	1.467918089582555e-03
	3.070064046580432e-04
	4.452570792591704e-01

 93	9.300000000000006e-01
	-1.144352517525580e-15
	-1.128095237379958e-19
	-5.684333934138342e-15
	1.862984499529725e-05
	1.493694166314818e-03
	3.218075959808144e-04
	4.452584919234988e-01

 94	9.400000000000006e-01
	-1.142337183426201e-15
	-1.283977532859400e-19
	-5.701718405557431e-15
	1.916551353851590e-05
	1.518062503332583e-03
	3.368591849491695e-04
	4.452599303352204e-01

 95	9.500000000000006e-01
	-1.140447803094564e-15
	-1.440830046123105e-19
	-5.718563277566564e-15
	1.970159959909702e-05
	1.541056159003499e-03
	3.521472622278104e-04
	4.452613931225968e-01

 96	9.600000000000006e-01
	-1.138679393857625e-15
	-1.598667265429839e-19
	-5.734883065438034e-15
	2.023784993998321e-05
	1.562714656555150e-03
	3.676582827362247e-04
	4.452628789446961e-01

 97	9.700000000000006e-01
	-1.137027120074838e-15
	-1.757506315856010e-19
	-5.750692092181634e-15
	2.077403354997313e-05
	1.583082857190125e-03
	3.833791244995250e-04
	4.452643864978725e-01

 98	9.800000000000006e-01
	-1.135486292606772e-15
	-1.917366884622339e-19
	-5.766004474869975e-15
	2.130994106140007e-05
	1.602209894402174e-03
	3.992971365346070e-04
	4.452659145211204e-01

 99	9.900000000000007e-01
	-1.134052367931846e-15
	-2.078271147706931e-19
	-5.780834112491792e-15
	2.184538406334130e-05
	1.620148181354498e-03
	4.154001764469890e-04
	4.452674618003695e-01

 100	1.000000000000001e+00
	-1.132720946943600e-15
	-2.240243698020573e-19
	-5.795194675249339e-15
	2.238019432771446e-05
	1.636952499495347e-03
	4.316766385131782e-04
	4.452690271717839e-01

 101	1.010000000000001e+00
	-1.131487773459403e-15
	-2.403311475378776e-19
	-5.809099595217362e-15
	2.291422296481661e-05
	1.652679173323237e-03
	4.481154730880874e-04
	4.452706095241685e-01

 102	1.020000000000001e+00
	-1.130348732469848e-15
	-2.567503698488653e-19
	-5.822562058282580e-15
	2.344733952390104e-05
	1.667385333405576e-03
	4.647061982115395e-04
	4.452722078005394e-01

 103	1.030000000000001e+00
	-1.129299848156707e-15
	-2.732851799129001e-19
	-5.835594997284344e-15
	2.397943105329254e-05
	1.681128267404488e-03
	4.814389042964569e-04
	4.452738209989880e-01

 104	1.040000000000001e+00
	-1.128337281705511e-15
	-2.899389358689807e-19
	-5.848211086279615e-15
	2.451040113336219e-05
	1.693964856959045e-03
	4.983042527689624e-04
	4.452754481728775e-01

 105	1.050000000000001e+00
	-1.127457328937511e-15
	-3.067152047206685e-19
	-5.860422735857285e-15
	2.504016889443699e-05
	1.705951096784151e-03
	5.152934695010928e-04
	4.452770884305001e-01

 106	1.060000000000001e+00
	-1.126656417784128e-15
	-3.236177565007571e-19
	-5.872242089429658e-15
	2.556866803045064e-05
	1.717141691235604e-03
	5.323983338345393e-04
	4.452787409342611e-01

 107	1.070000000000001e+00
	-1.125931105625459e-15
	-3.406505587071113e-19
	-5.883681020431576e-15
	2.609584581787175e-05
	1.727589722814221e-03
	5.496111639421772e-04
	4.452804048994551e-01

 108	1.080000000000001e+00
	-1.125278076513108e-15
	-3.578177710180394e-19
	-5.894751130360169e-15
	2.662166214819824e-05
	1.737346386593005e-03
	5.669247992161258e-04
	4.452820795927211e-01

 109	1.090000000000001e+00
	-1.124694138296079e-15
	-3.751237402932131e-19
	-5.905463747591230e-15
	2.714608858110329e-05
	1.746460784304618e-03
	5.843325803095491e-04
	4.452837643302465e-01

 110	1.100000000000001e+00
	-1.124176219667112e-15
	-3.925729958659198e-19
	-5.915829926910956e-15
	2.766910742417763e-05
	1.754979771777680e-03
	6.018283273964371e-04
	4.452854584757495e-01

 111	1.110000000000001e+00
	-1.123721367145603e-15
	-4.101702451302926e-19
	-5.925860449704678e-15
	2.819071084413910e-05
	1.762947853518916e-03
	6.194063171509221e-04
	4.452871614383226e-01

 112	1.120000000000001e+00
	-1.123326742011937e-15
	-4.279203694258387e-19
	-5.935565824747050e-15
	2.871090001339166e-05
	1.770407118467657e-03
	6.370612588867447e-04
	4.452888726701820e-01

 113	1.130000000000001e+00
	-1.122989617206844e-15
	-4.458284202217475e-19
	-5.944956289541027e-15
	2.922968429491460e-05
	1.777397211267654e-03
	6.547882702394718e-04
	4.452905916643306e-01

 114	1.140000000000001e+00
	-1.122707374208325e-15
	-4.638996156010454e-19
	-5.954041812155681e-15
	2.974708046764243e-05
	1.783955333780412e-03
	6.725828527192143e-04
	4.452923179522161e-01

 115	1.150000000000001e+00
	-1.122477499897498e-15
	-4.821393370450306e-19
	-5.962832093515822e-15
	3.026311199377691e-05
	1.790116271982552e-03
	6.904408674112102e-04
	4.452940511013663e-01

 116	1.160000000000001e+00
	-1.122297583423793e-15
	-5.005531265166611e-19
	-5.971336570098830e-15
	3.077780832882771e-05
	1.795912443826727e-03
	7.083585110550540e-04
	4.452957907130787e-01

 117	1.170000000000001e+00
	-1.122165313078841e-15
	-5.191466838424289e-19
	-5.979564416997027e-15
	3.129120427463037e-05
	1.801373964087793e-03
	7.263322926916691e-04
	4.452975364201212e-01

 118	1.180000000000001e+00
	-1.122078473187626e-15
	-5.379258643896478e-19
	-5.987524551306106e-15
	3.180333937511103e-05
	1.806528722650098e-03
	7.443590110293349e-04
	4.452992878845254e-01

 119	1.190000000000001e+00
	-1.122034941024411e-15
	-5.568966770376828e-19
	-5.995225635803079e-15
	3.231425735417041e-05
	1.811402473110547e-03
	7.624357326469804e-04
	4.453010447954385e-01

 120	1.200000000000001e+00
	-1.122032683760386e-15
	-5.760652824400637e-19
	-6.002676082878952e-15
	3.282400559472744e-05
	1.816018928968077e-03
	7.805597711236595e-04
	4.453028068670663e-01

 121	1.210000000000001e+00
	-1.122069755448955e-15
	-5.954379915740902e-19
	-6.009884058694366e-15
	3.333263465769472e-05
	1.820399865039903e-03
	7.987286671577753e-04
	4.453045738367059e-01

 122	1.220000000000001e+00
	-1.122144294054125e-15
	-6.150212645751183e-19
	-6.016857487527939e-15
	3.384019783944454e-05
	1.824565222085310e-03
	8.169401697177696e-04
	4.453063454628748e-01

 123	1.230000000000001e+00
	-1.122254518526661e-15
	-6.348217098515930e-19
	-6.023604056289603e-15
	3.434675076616281e-05
	1.828533212928053e-03
	8.351922182474282e-04
	4.453081215235472e-01

 124	1.240000000000001e+00
	-1.122398725932047e-15
	-6.548460834772928e-19
	-6.030131219173182e-15
	3.485235102336979e-05
	1.832320428648179e-03
	8.534829259333166e-04
	4.453099018144864e-01

 125	1.250000000000001e+00
	-1.122575288633851e-15
	-6.751012888570866e-19
	-6.036446202424107e-15
	3.535705781880647e-05
	1.835941943664053e-03
	8.718105640288719e-04
	4.453116861476782e-01

 126	1.260000000000001e+00
	-1.122782651535421e-15
	-6.955943766622534e-19
	-6.042556009200314e-15
	3.586093167683763e-05
	1.839411418746697e-03
	8.901735472189963e-04
	4.453134743498718e-01

 127	1.270000000000001e+00
	-1.123019329382472e-15
	-7.163325450316310e-19
	-6.048467424505980e-15
	3.636403416250641e-05
	1.842741201203069e-03
	9.085704200005139e-04
	4.453152662612156e-01

 128	1.280000000000001e+00
	-1.123283904128617e-15
	-7.373231400349352e-19
	-6.054187020179231e-15
	3.686642763337711e-05
	1.845942421634111e-03
	9.269998440470223e-04
	4.453170617339826e-01

 129	1.290000000000001e+00
	-1.123575022365530e-15
	-7.585736563941113e-19
	-6.059721159916796e-15
	3.736817501732873e-05
	1.849025086819707e-03
	9.454605865215018e-04
	4.453188606314070e-01

 130	1.300000000000001e+00
	-1.123891392818990e-15
	-7.800917384597097e-19
	-6.065076004319871e-15
	3.786933961450284e-05
	1.851998168408063e-03
	9.639515092963012e-04
	4.453206628265897e-01

 131	1.310000000000001e+00
	-1.124231783911825e-15
	-8.018851814382707e-19
	-6.070257515946767e-15
	3.836998492166088e-05
	1.854869687193203e-03
	9.824715590373320e-04
	4.453224682015032e-01

 132	1.320000000000001e+00
	-1.124595021394342e-15
	-8.239619328677483e-19
	-6.075271464359426e-15
	3.887017447726868e-05
	1.857646792853964e-03
	1.001019758107691e-03
	4.453242766460689e-01

 133	1.330000000000001e+00
	-1.124979986042664e-15
	-8.463300943375765e-19
	-6.080123431151902e-15
	3.936997172569825e-05
	1.860335839102204e-03
	1.019595196245036e-03
	4.453260880573159e-01

 134	1.340000000000001e+00
	-1.125385611425061e-15
	-8.689979234506152e-19
	-6.084818814950155e-15
	3.986943989900927e-05
	1.862942454249343e-03
	1.038197022966808e-03
	4.453279023386087e-01

 135	1.350000000000001e+00
	-1.125810881736156e-15
	-8.919738360239122e-19
	-6.089362836373564e-15
	4.036864191485291e-05
	1.865471607250054e-03
	1.056824440657766e-03
	4.453297193989548e-01

 136	1.360000000000001e+00
	-1.126254829698696e-15
	-9.152664085263858e-19
	-6.093760542949515e-15
	4.086764028912418e-05
	1.867927669321858e-03
	1.075476698295180e-03
	4.453315391523451e-01

 137	1.370000000000001e+00
	-1.126716534532447e-15
	-9.388843807504952e-19
	-6.098016813973317e-15
	4.136649706206266e-05
	1.870314471270221e-03
	1.094153085767944e-03
	4.453333615171944e-01

 138	1.380000000000001e+00
	-1.127195119989447e-15
	-9.628366587161732e-19
	-6.102136365306768e-15
	4.186527373659189e-05
	1.872635356672891e-03
	1.112852928747599e-03
	4.453351864158066e-01

 139	1.390000000000001e+00
	-1.127689752454914e-15
	-9.871323178054710e-19
	-6.106123754109178e-15
	4.236403122776040e-05
	1.874893231094441e-03
	1.131575584070660e-03
	4.453370137739044e-01

 140	1.400000000000001e+00
	-1.128199639112806e-15
	-1.011780606126269e-18
	-6.109983383495686e-15
	4.286282982222839e-05
	1.877090607514288e-03
	1.150320435593503e-03
	4.453388435201995e-01

 141	1.410000000000001e+00
	-1.128724026175082e-15
	-1.036790948103947e-18
	-6.113719507118213e-15
	4.336172914681781e-05
	1.879229648159236e-03
	1.169086890482928e-03
	4.453406755860108e-01

 142	1.420000000000001e+00
	-1.129262197173444e-15
	-1.062172948299807e-18
	-6.117336233665144e-15
	4.386078814521695e-05
	1.881312202935650e-03
	1.187874375907434e-03
	4.453425099049281e-01

 143	1.430000000000001e+00
	-1.129813471312410e-15
	-1.087936395456710e-18
	-6.120837531276318e-15
	4.436006506200039e-05
	1.883339844657560e-03
	1.206682336096261e-03
	4.453443464125014e-01

 144	1.440000000000001e+00
	-1.130377201882414e-15
	-1.114091266770619e-18
	-6.124227231870564e-15
	4.485961743318963e-05
	1.885313901265525e-03
	1.225510229735125e-03
	4.453461850459700e-01

 145	1.450000000000001e+00
	-1.130952774731597e-15
	-1.140647732388407e-18
	-6.127509035383413e-15
	4.535950208264251e-05
	1.887235485227870e-03
	1.244357527669535e-03
	4.453480257440245e-01

 146	1.460000000000001e+00
	-1.131539606794913e-15
	-1.167616160133004e-18
	-6.130686513913147e-15
	4.585977512362037e-05
	1.889105520311058e-03
	1.263223710888529e-03
	4.453498684465914e-01

 147	1.470000000000001e+00
	-1.132137144679139e-15
	-1.195007120455487e-18
	-6.133763115773642e-15
	4.636049196493352e-05
	1.890924765899890e-03
	1.282108268763376e-03
	4.453517130946570e-01

 148	1.480000000000001e+00
	-1.132744863302295e-15
	-1.222831391616527e-18
	-6.136742169453125e-15
	4.686170732112288e-05
	1.892693839041461e-03
	1.301010697517753e-03
	4.453535596300913e-01

 149	1.490000000000001e+00
	-1.133362264586069e-15
	-1.251099965097293e-18
	-6.139626887477892e-15
	4.736347522617821e-05
	1.894413234379101e-03
	1.319930498907392e-03
	4.453554079955177e-01

 150	1.500000000000001e+00
	-1.133988876199716e-15
	-1.279824051242460e-18
	-6.142420370180771e-15
	4.786584905034256e-05
	1.896083342134758e-03
	1.338867179088948e-03
	4.453572581341891e-01

 151	1.510000000000001e+00
	-1.134624250353946e-15
	-1.309015085137283e-18
	-6.145125609374052e-15
	4.836888151959494e-05
	1.897704464290023e-03
	1.357820247659420e-03
	4.453591099898763e-01

 152	1.520000000000001e+00
	-1.135267962643351e-15
	-1.338684732720709e-18
	-6.147745491927177e-15
	4.887262473743670e-05
	1.899276829107675e-03
	1.376789216848694e-03
	4.453609635067940e-01

 153	1.530000000000001e+00
	-1.135919610935808e-15
	-1.368844897138116e-18
	-6.150282803249412e-15
	4.937713020865228e-05
	1.900800604127492e-03
	1.395773600849492e-03
	4.453628186295129e-01
