Title: ** sch_path: /home/andylithia/openmpw/project-yatsuhashi-chip1/xschem/gmid_test/nmos_test.sch
Date: Tue Jul 19 23:15:45  2022
Plotname: DC transfer characteristic
Flags: real
No. Variables: 8
No. Points: 181
Variables:
	0	v(v-sweep)	voltage
	1	@m.xm1.msky130_fd_pr__nfet_01v8[cgb]	capacitance
	2	@m.xm1.msky130_fd_pr__nfet_01v8[cgd]	capacitance
	3	@m.xm1.msky130_fd_pr__nfet_01v8[cgs]	capacitance
	4	@m.xm1.msky130_fd_pr__nfet_01v8[gds]	admittance
	5	@m.xm1.msky130_fd_pr__nfet_01v8[gm]	admittance
	6	i(@m.xm1.msky130_fd_pr__nfet_01v8[id])	current
	7	v(@m.xm1.msky130_fd_pr__nfet_01v8[vth])	voltage
Values:
 0	0.000000000000000e+00
	-1.049314084752521e-14
	-7.333741008550417e-19
	-1.963784237275137e-14
	4.585880442306611e-08
	1.767107762738207e-06
	2.262509775438139e-07
	1.981749067275787e-01

 1	1.000000000000000e-02
	-1.037950857221835e-14
	-7.505702456283481e-19
	-1.990600031134141e-14
	4.943593927558238e-08
	1.909077227749162e-06
	2.446227272601331e-07
	1.981749081142767e-01

 2	2.000000000000000e-02
	-1.026733821180737e-14
	-7.681361672117651e-19
	-2.017380198360454e-14
	5.327786726978807e-08
	2.062494053169230e-06
	2.644706434104173e-07
	1.981749096135784e-01

 3	3.000000000000000e-02
	-1.015665252247662e-14
	-7.860787608488204e-19
	-2.044115498289712e-14
	5.740268751388861e-08
	2.228314263714161e-06
	2.859139109512858e-07
	1.981749112347557e-01

 4	4.000000000000000e-02
	-1.004747355985025e-14
	-8.044050305722502e-19
	-2.070796743672640e-14
	6.182958757282602e-08
	2.407579957940583e-06
	3.090816986989903e-07
	1.981749129878913e-01

 5	5.000000000000000e-02
	-9.939822638499385e-15
	-8.231220910631270e-19
	-2.097414811965437e-14
	6.657889534479365e-08
	2.601427747830778e-06
	3.341140615788790e-07
	1.981749148839388e-01

 6	6.000000000000000e-02
	-9.833720293447696e-15
	-8.422371695666384e-19
	-2.123960656457968e-14
	7.167213227930068e-08
	2.811098047652285e-06
	3.611629314532259e-07
	1.981749169348259e-01

 7	7.000000000000001e-02
	-9.729186243751016e-15
	-8.617576078672967e-19
	-2.150425317212669e-14
	7.713206788262843e-08
	3.037945288884497e-06
	3.903932054000303e-07
	1.981749191535329e-01

 8	8.000000000000000e-02
	-9.626239358221669e-15
	-8.816908643242869e-19
	-2.176799931787254e-14
	8.298277544858767e-08
	3.283449142622019e-06
	4.219839411062894e-07
	1.981749215541982e-01

 9	9.000000000000000e-02
	-9.524897623359612e-15
	-9.020445159698846e-19
	-2.203075745715495e-14
	8.924968894423256e-08
	3.549226835333179e-06
	4.561296698757588e-07
	1.981749241522383e-01

 10	9.999999999999999e-02
	-9.425178113546128e-15
	-9.228262606720209e-19
	-2.229244122721199e-14
	9.595966097180456e-08
	3.837046648078164e-06
	4.930418386314549e-07
	1.981749269644671e-01

 11	1.100000000000000e-01
	-9.327096963547471e-15
	-9.440439193635656e-19
	-2.255296554641561e-14
	1.031410217194014e-07
	4.148842693162411e-06
	5.329503932136135e-07
	1.981749300092357e-01

 12	1.200000000000000e-01
	-9.230669343368832e-15
	-9.657054383400484e-19
	-2.281224671037127e-14
	1.108236388039441e-07
	4.486731065596288e-06
	5.761055162309556e-07
	1.981749333065923e-01

 13	1.300000000000000e-01
	-9.135909435490503e-15
	-9.878188916273895e-19
	-2.307020248467081e-14
	1.190389779008030e-07
	4.853027469509409e-06
	6.227795337112400e-07
	1.981749368784369e-01

 14	1.400000000000000e-01
	-9.042830414510570e-15
	-1.010392483422710e-18
	-2.332675219409514e-14
	1.278201640449451e-07
	5.250266421665945e-06
	6.732690058088828e-07
	1.981749407487264e-01

 15	1.500000000000000e-01
	-8.951444429210186e-15
	-1.033434550608893e-18
	-2.358181680808107e-14
	1.372020434787360e-07
	5.681222135274126e-06
	7.278970178550421e-07
	1.981749449436697e-01

 16	1.600000000000000e-01
	-8.861762587049887e-15
	-1.056953565346226e-18
	-2.383531902227814e-14
	1.472212459115173e-07
	6.148931187178193e-06
	7.870156890676622e-07
	1.981749494919557e-01

 17	1.700000000000000e-01
	-8.773794941097102e-15
	-1.080958137742129e-18
	-2.408718333603738e-14
	1.579162470456592e-07
	6.656717070051388e-06
	8.510089172632871e-07
	1.981749544250175e-01

 18	1.800000000000000e-01
	-8.687550479377148e-15
	-1.105457018602001e-18
	-2.433733612569071e-14
	1.693274312132984e-07
	7.208216728146478e-06
	9.202953789149849e-07
	1.981749597772892e-01

 19	1.900000000000000e-01
	-8.603037116632815e-15
	-1.130459102262570e-18
	-2.458570571349243e-14
	1.814971539567272e-07
	7.807409170240238e-06
	9.953318048620381e-07
	1.981749655865349e-01

 20	2.000000000000000e-01
	-8.520261688469386e-15
	-1.155973429510539e-18
	-2.483222243211465e-14
	1.944698043742816e-07
	8.458646246383895e-06
	1.076616552880771e-06
	1.981749718941706e-01

 21	2.100000000000000e-01
	-8.439229947855297e-15
	-1.182009190588071e-18
	-2.507681868460062e-14
	2.082918670416127e-07
	9.166685665634450e-06
	1.164693499145569e-06
	1.981749787456332e-01

 22	2.200000000000001e-01
	-8.359946563941003e-15
	-1.208575728287877e-18
	-2.531942899969972e-14
	2.230119833060967e-07
	9.936726319814246e-06
	1.260156271322220e-06
	1.981749861908064e-01

 23	2.300000000000001e-01
	-8.282415123152090e-15
	-1.235682541140087e-18
	-2.555999008252306e-14
	2.386810117395463e-07
	1.077444596321582e-05
	1.363652846612873e-06
	1.981749942844469e-01

 24	2.400000000000001e-01
	-8.206638132506298e-15
	-1.263339286692850e-18
	-2.579844086047466e-14
	2.553520875212168e-07
	1.168604127971591e-05
	1.475890538480116e-06
	1.981750030866839e-01

 25	2.500000000000001e-01
	-8.132617025097706e-15
	-1.291555784889139e-18
	-2.603472252443033e-14
	2.730806805094775e-07
	1.267827034668490e-05
	1.597641395984354e-06
	1.981750126635680e-01

 26	2.600000000000001e-01
	-8.060352167685609e-15
	-1.320342021542741e-18
	-2.626877856515275e-14
	2.919246517465974e-07
	1.375849747906815e-05
	1.729748039635220e-06
	1.981750230876418e-01

 27	2.700000000000001e-01
	-7.989842870320455e-15
	-1.349708151914521e-18
	-2.650055480494533e-14
	3.119443081262707e-07
	1.493474040676156e-05
	1.873129957341395e-06
	1.981750344385999e-01

 28	2.800000000000001e-01
	-7.921087397933619e-15
	-1.379664504392832e-18
	-2.672999942456559e-14
	3.332024549386802e-07
	1.621571970366401e-05
	2.028790283404216e-06
	1.981750468039871e-01

 29	2.900000000000001e-01
	-7.854082983814104e-15
	-1.410221584279588e-18
	-2.695706298543063e-14
	3.557644459921846e-07
	1.761091034729164e-05
	2.197823082488165e-06
	1.981750602799601e-01

 30	3.000000000000001e-01
	-7.788825844890307e-15
	-1.441390077684961e-18
	-2.718169844716420e-14
	3.796982309948648e-07
	1.913059524340833e-05
	2.381421159070355e-06
	1.981750749721328e-01

 31	3.100000000000001e-01
	-7.725311198731538e-15
	-1.473180855533125e-18
	-2.740386118054778e-14
	4.050743998627756e-07
	2.078592050061517e-05
	2.580884410970196e-06
	1.981750909964787e-01

 32	3.200000000000001e-01
	-7.663533282181090e-15
	-1.505604977681967e-18
	-2.762350897595092e-14
	4.319662236052145e-07
	2.258895218517668e-05
	2.797628743137831e-06
	1.981751084803174e-01

 33	3.300000000000001e-01
	-7.603485371529156e-15
	-1.538673697159024e-18
	-2.784060204732955e-14
	4.604496914204490e-07
	2.455273422656576e-05
	3.033195554884994e-06
	1.981751275633782e-01

 34	3.400000000000001e-01
	-7.545159804132228e-15
	-1.572398464516630e-18
	-2.805510303189214e-14
	4.906035436185572e-07
	2.669134707939839e-05
	3.289261810123219e-06
	1.981751483989584e-01

 35	3.500000000000001e-01
	-7.488548001383442e-15
	-1.606790932309510e-18
	-2.826697698554459e-14
	5.225092999712852e-07
	2.901996667784513e-05
	3.567650695883070e-06
	1.981751711551665e-01

 36	3.600000000000002e-01
	-7.433640492936562e-15
	-1.641862959696683e-18
	-2.847619137423597e-14
	5.562512830725293e-07
	3.155492314463256e-05
	3.870342869378578e-06
	1.981751960162534e-01

 37	3.700000000000002e-01
	-7.380426942085974e-15
	-1.677626617171837e-18
	-2.868271606133534e-14
	5.919166362770492e-07
	3.431375863890192e-05
	4.199488288109855e-06
	1.981752231840592e-01

 38	3.800000000000002e-01
	-7.328896172203901e-15
	-1.714094191424155e-18
	-2.888652329117949e-14
	6.295953357702918e-07
	3.731528364622068e-05
	4.557418610933425e-06
	1.981752528795447e-01

 39	3.900000000000002e-01
	-7.279036194136206e-15
	-1.751278190333359e-18
	-2.908758766893875e-14
	6.693801963082262e-07
	4.057963093079720e-05
	4.946660150640282e-06
	1.981752853444426e-01

 40	4.000000000000002e-01
	-7.230834234458056e-15
	-1.789191348101972e-18
	-2.928588613695550e-14
	7.113668701540668e-07
	4.412830628558784e-05
	5.369947350356139e-06
	1.981753208430020e-01

 41	4.100000000000002e-01
	-7.184276764492008e-15
	-1.827846630527879e-18
	-2.948139794771488e-14
	7.556538387284166e-07
	4.798423513179055e-05
	5.830236747005490e-06
	1.981753596638442e-01

 42	4.200000000000002e-01
	-7.139349529991194e-15
	-1.867257240420901e-18
	-2.967410463361398e-14
	8.023423964818553e-07
	5.217180393677181e-05
	6.330721375175132e-06
	1.981754021219334e-01

 43	4.300000000000002e-01
	-7.096037581392390e-15
	-1.907436623166167e-18
	-2.986398997369857e-14
	8.515366264941543e-07
	5.671689534054055e-05
	6.874845553997002e-06
	1.981754485606485e-01

 44	4.400000000000002e-01
	-7.054325304544899e-15
	-1.948398472438796e-18
	-3.005103995754156e-14
	9.033433673035556e-07
	6.164691580748464e-05
	7.466319988191892e-06
	1.981754993539505e-01

 45	4.500000000000002e-01
	-7.014196451823569e-15
	-1.990156736072492e-18
	-3.023524274643819e-14
	9.578721704725470e-07
	6.699081455443299e-05
	8.109137102237330e-06
	1.981755549086650e-01

 46	4.600000000000002e-01
	-6.975634173536054e-15
	-2.032725622086497e-18
	-3.041658863209677e-14
	1.015235248405125e-06
	7.277909245067482e-05
	8.807586513841689e-06
	1.981756156668358e-01

 47	4.700000000000003e-01
	-6.938621049537545e-15
	-2.076119604874349e-18
	-3.059506999300331e-14
	1.075547411944203e-06
	7.904379954290738e-05
	9.566270539626960e-06
	1.981756821081824e-01

 48	4.800000000000003e-01
	-6.903139120968416e-15
	-2.120353431558804e-18
	-3.077068124863964e-14
	1.138925997298613e-06
	8.581851983102036e-05
	1.039011961229911e-05
	1.981757547526145e-01

 49	4.900000000000003e-01
	-6.869169922033170e-15
	-2.165442128515985e-18
	-3.094341881173441e-14
	1.205490781876536e-06
	9.313834191193826e-05
	1.128440747477521e-05
	1.981758341628059e-01

 50	5.000000000000002e-01
	-6.836694511743095e-15
	-2.211401008074759e-18
	-3.111328103872414e-14
	1.275363888638246e-06
	1.010398141213672e-04
	1.225476600294949e-05
	1.981759209468041e-01

 51	5.100000000000002e-01
	-6.805693505546942e-15
	-2.258245675393471e-18
	-3.128026817860151e-14
	1.348669678625281e-06
	1.095608828400508e-04
	1.330719949523582e-05
	1.981760157606691e-01

 52	5.200000000000002e-01
	-6.776147106778682e-15
	-2.305992035520214e-18
	-3.144438232032409e-14
	1.425534631377617e-06
	1.187408126947925e-04
	1.444809825398551e-05
	1.981761193111040e-01

 53	5.300000000000002e-01
	-6.748035137854166e-15
	-2.354656300640361e-18
	-3.160562733895545e-14
	1.506087213014522e-06
	1.286200874775664e-04
	1.568425127162139e-05
	1.981762323580423e-01

 54	5.400000000000003e-01
	-6.721337071152541e-15
	-2.404254997515912e-18
	-3.176400884070567e-14
	1.590457731829969e-06
	1.392402907307301e-04
	1.702285782316137e-05
	1.981763557171837e-01

 55	5.500000000000003e-01
	-6.696032059521683e-15
	-2.454804975122818e-18
	-3.191953410703593e-14
	1.678778181339899e-06
	1.506439651045120e-04
	1.847153775705581e-05
	1.981764902624207e-01

 56	5.600000000000003e-01
	-6.672098966351188e-15
	-2.506323412489072e-18
	-3.207221203798591e-14
	1.771182070816489e-06
	1.628744497858012e-04
	2.003834026826840e-05
	1.981766369281473e-01

 57	5.700000000000003e-01
	-6.649516395159613e-15
	-2.558827826741168e-18
	-3.222205309487961e-14
	1.867804243454497e-06
	1.759756955254979e-04
	2.173175093165066e-05
	1.981767967113655e-01

 58	5.800000000000003e-01
	-6.628262718647138e-15
	-2.612336081362395e-18
	-3.236906924255890e-14
	1.968780682435666e-06
	1.899920570550835e-04
	2.356069677023728e-05
	1.981769706735898e-01

 59	5.900000000000003e-01
	-6.608316107167880e-15
	-2.666866394669766e-18
	-3.251327389128947e-14
	2.074248305289973e-06
	2.049680629807023e-04
	2.553454913248521e-05
	1.981771599424647e-01

 60	6.000000000000003e-01
	-6.589654556580691e-15
	-2.722437348514761e-18
	-3.265468183847773e-14
	2.184344747095319e-06
	2.209481635728437e-04
	2.766312415501267e-05
	1.981773657130855e-01

 61	6.100000000000003e-01
	-6.572255915440177e-15
	-2.779067897213265e-18
	-3.279330921033171e-14
	2.299208133210233e-06
	2.379764572287608e-04
	2.995668059339082e-05
	1.981775892489184e-01

 62	6.200000000000003e-01
	-6.556097911494074e-15
	-2.836777376712150e-18
	-3.292917340359238e-14
	2.418976842394804e-06
	2.560963967687345e-04
	3.242591481324601e-05
	1.981778318823309e-01

 63	6.300000000000003e-01
	-6.541158177456056e-15
	-2.895585513997480e-18
	-3.306229302745631e-14
	2.543789261343177e-06
	2.753504771311594e-04
	3.508195274760731e-05
	1.981780950146290e-01

 64	6.400000000000003e-01
	-6.527414276027211e-15
	-2.955512436751664e-18
	-3.319268784580354e-14
	2.673783531822870e-06
	2.957799064484845e-04
	3.793633864420325e-05
	1.981783801155732e-01

 65	6.500000000000004e-01
	-6.514843724142322e-15
	-3.016578683265629e-18
	-3.332037871983852e-14
	2.809097291790954e-06
	3.174242629090694e-04
	4.100102044841210e-05
	1.981786887223322e-01

 66	6.600000000000004e-01
	-6.503424016420638e-15
	-3.078805212614073e-18
	-3.344538755124540e-14
	2.949867412031267e-06
	3.403211402302852e-04
	4.428833169378699e-05
	1.981790224378129e-01

 67	6.700000000000004e-01
	-6.493132647804173e-15
	-3.142213415099108e-18
	-3.356773722595257e-14
	3.096229730027386e-06
	3.645057849764502e-04
	4.781096980245072e-05
	1.981793829283405e-01

 68	6.800000000000004e-01
	-6.483947135369305e-15
	-3.206825122971467e-18
	-3.368745155859470e-14
	3.248318782950155e-06
	3.900107293413666e-04
	5.158197073201694e-05
	1.981797719206355e-01

 69	6.900000000000004e-01
	-6.475845039301086e-15
	-3.272662621435859e-18
	-3.380455523775406e-14
	3.406267541791809e-06
	4.168654233686659e-04
	5.561467994374675e-05
	1.981801911981083e-01

 70	7.000000000000004e-01
	-6.468803983021527e-15
	-3.339748659948322e-18
	-3.391907377205752e-14
	3.570207148819112e-06
	4.450958708934116e-04
	5.992271970805741e-05
	1.981806425963844e-01

 71	7.100000000000004e-01
	-6.462801672466832e-15
	-3.408106463814476e-18
	-3.403103343719791e-14
	3.740266660639422e-06
	4.747242737444522e-04
	6.451995280770669e-05
	1.981811279981140e-01

 72	7.200000000000004e-01
	-6.457815914510993e-15
	-3.477759746094767e-18
	-3.414046122394344e-14
	3.916572799274806e-06
	5.057686889390744e-04
	6.942044274545692e-05
	1.981816493270467e-01

 73	7.300000000000004e-01
	-6.453824634534430e-15
	-3.548732719828472e-18
	-3.424738478719330e-14
	4.099249713716034e-06
	5.382427037199961e-04
	7.463841061105026e-05
	1.981822085413621e-01

 74	7.400000000000004e-01
	-6.450805893141218e-15
	-3.621050110581411e-18
	-3.435183239612985e-14
	4.288418754475496e-06
	5.721551333213021e-04
	8.018818881109246e-05
	1.981828076263509e-01

 75	7.500000000000004e-01
	-6.448737902027458e-15
	-3.694737169329564e-18
	-3.445383288551518e-14
	4.484198263677443e-06
	6.075097462984566e-04
	8.608417191419871e-05
	1.981834485864061e-01

 76	7.600000000000005e-01
	-6.447599039008355e-15
	-3.769819685685263e-18
	-3.455341560817173e-14
	4.686703383206889e-06
	6.443050221122723e-04
	9.234076491142531e-05
	1.981841334364378e-01

 77	7.700000000000005e-01
	-6.447367862211516e-15
	-3.846324001477264e-18
	-3.465061038868312e-14
	4.896045883389572e-06
	6.825339454159228e-04
	9.897232923781739e-05
	1.981848641927584e-01

 78	7.800000000000005e-01
	-6.448023123446637e-15
	-3.924277024692659e-18
	-3.474544747834598e-14
	5.112334014588818e-06
	7.221838411567760e-04
	1.059931269437503e-04
	1.981856428635098e-01

 79	7.900000000000005e-01
	-6.449543780763419e-15
	-4.003706243791287e-18
	-3.483795751139874e-14
	5.335672383983234e-06
	7.632362541735543e-04
	1.134172634437472e-04
	1.981864714387458e-01

 80	8.000000000000005e-01
	-6.451909010210779e-15
	-4.084639742403635e-18
	-3.492817146254876e-14
	5.566161859631815e-06
	8.056668764490328e-04
	1.212586293046807e-04
	1.981873518802346e-01

 81	8.100000000000005e-01
	-6.455098216811949e-15
	-4.167106214420738e-18
	-3.501612060581549e-14
	5.803899503740710e-06
	8.494455245764283e-04
	1.295308415638284e-04
	1.981882861111384e-01

 82	8.200000000000005e-01
	-6.459091044771691e-15
	-4.251134979488432e-18
	-3.510183647470211e-14
	6.048978536823104e-06
	8.945361693244599e-04
	1.382471850894574e-04
	1.981892760056390e-01

 83	8.300000000000005e-01
	-6.463867386932036e-15
	-4.336755998916654e-18
	-3.518535082370628e-14
	6.301488334190953e-06
	9.408970184537364e-04
	1.474205545117153e-04
	1.981903233786548e-01

 84	8.400000000000005e-01
	-6.469407393495529e-15
	-4.423999892014695e-18
	-3.526669559117440e-14
	6.561514455939816e-06
	9.884806531604354e-04
	1.570633972591505e-04
	1.981914299757935e-01

 85	8.500000000000005e-01
	-6.475691480034130e-15
	-4.512897952865550e-18
	-3.534590286350276e-14
	6.829138711291863e-06
	1.037234217718783e-03
	1.671876582358344e-04
	1.981925974635927e-01

 86	8.600000000000005e-01
	-6.482700334804036e-15
	-4.603482167549458e-18
	-3.542300484068459e-14
	7.104439257848148e-06
	1.087099661078298e-03
	1.778047266655002e-04
	1.981938274202595e-01

 87	8.700000000000006e-01
	-6.490414925386715e-15
	-4.695785231833218e-18
	-3.549803380319884e-14
	7.387490735981105e-06
	1.138014028364459e-03
	1.889253856125201e-04
	1.981951213269439e-01

 88	8.800000000000006e-01
	-6.498816504677263e-15
	-4.789840569333306e-18
	-3.557102208023474e-14
	7.678364438271839e-06
	1.189909799449676e-03
	2.005597646648893e-04
	1.981964805597261e-01

 89	8.900000000000006e-01
	-6.507886616241142e-15
	-4.885682350172442e-18
	-3.564200201924266e-14
	7.977128513575819e-06
	1.242715271024284e-03
	2.127172962322160e-04
	1.981979063823351e-01

 90	9.000000000000006e-01
	-6.517607099061715e-15
	-4.983345510139466e-18
	-3.571100595679969e-14
	8.283848204985902e-06
	1.296354977920580e-03
	2.254066758723671e-04
	1.981993999397652e-01

 91	9.100000000000006e-01
	-6.527960091700012e-15
	-5.082865770370551e-18
	-3.577806619077626e-14
	8.598586120664586e-06
	1.350750148843474e-03
	2.386358270147982e-04
	1.982009622528043e-01

 92	9.200000000000006e-01
	-6.538928035889341e-15
	-5.184279657566007e-18
	-3.584321495378767e-14
	8.921402536238164e-06
	1.405819191151244e-03
	2.524118703973151e-04
	1.982025942135702e-01

 93	9.300000000000006e-01
	-6.550493679586587e-15
	-5.287624524760264e-18
	-3.590648438791335e-14
	9.252355727194536e-06
	1.461478198921551e-03
	2.667410984772632e-04
	1.982042965820644e-01

 94	9.400000000000006e-01
	-6.562640079502977e-15
	-5.392938572661602e-18
	-3.596790652066321e-14
	9.591502329502650e-06
	1.517641478238211e-03
	2.816289550187411e-04
	1.982060699837990e-01

 95	9.500000000000006e-01
	-6.575350603135779e-15
	-5.500260871580918e-18
	-3.602751324217086e-14
	9.938897726484545e-06
	1.574222083449863e-03
	2.970800199957561e-04
	1.982079149084847e-01

 96	9.600000000000006e-01
	-6.588608930323632e-15
	-5.609631383965940e-18
	-3.608533628359052e-14
	1.029459645981771e-05
	1.631132358083551e-03
	3.130979998881987e-04
	1.982098317098007e-01

 97	9.700000000000006e-01
	-6.602399054346851e-15
	-5.721090987565053e-18
	-3.614140719667331e-14
	1.065865266243402e-05
	1.688284474144546e-03
	3.296857233845264e-04
	1.982118206061806e-01

 98	9.800000000000006e-01
	-6.616705282594161e-15
	-5.834681499236152e-18
	-3.619575733449850e-14
	1.103112051100657e-05
	1.745590963693487e-03
	3.468451424430015e-04
	1.982138816826232e-01

 99	9.900000000000007e-01
	-6.631512236817336e-15
	-5.950445699426718e-18
	-3.624841783333253e-14
	1.141205469568397e-05
	1.802965236857363e-03
	3.645773386035540e-04
	1.982160148934399e-01

 100	1.000000000000001e+00
	-6.646804852994694e-15
	-6.068427357344587e-18
	-3.629941959558851e-14
	1.180151090473604e-05
	1.860322080791850e-03
	3.828825343856133e-04
	1.982182200659214e-01

 101	1.010000000000001e+00
	-6.662568380823118e-15
	-6.188671256844417e-18
	-3.634879327385890e-14
	1.219954632182095e-05
	1.917578134558933e-03
	4.017601095547496e-04
	1.982204969047905e-01

 102	1.020000000000001e+00
	-6.678788382859643e-15
	-6.311223223053176e-18
	-3.639656925599119e-14
	1.260622013366173e-05
	1.974652335400944e-03
	4.212086219931307e-04
	1.982228449974212e-01

 103	1.030000000000001e+00
	-6.695450733331501e-15
	-6.436130149760319e-18
	-3.644277765117791e-14
	1.302159404603366e-05
	2.031466332467711e-03
	4.412258328666054e-04
	1.982252638196978e-01

 104	1.040000000000001e+00
	-6.712541616633903e-15
	-6.563440027599330e-18
	-3.648744827703053e-14
	1.344573280610672e-05
	2.087944864671239e-03
	4.618087357449588e-04
	1.982277527424330e-01

 105	1.050000000000001e+00
	-6.730047525534128e-15
	-6.693201973046383e-18
	-3.653061064760722e-14
	1.387870472935492e-05
	2.144016099987445e-03
	4.829535893019457e-04
	1.982303110382592e-01

 106	1.060000000000001e+00
	-6.747955259100265e-15
	-6.825466258265239e-18
	-3.657229396236257e-14
	1.432058222943550e-05
	2.199611934182391e-03
	5.046559531983549e-04
	1.982329378888881e-01

 107	1.070000000000001e+00
	-6.766251920371855e-15
	-6.960284341827596e-18
	-3.661252709598963e-14
	1.477144234964930e-05
	2.254668247596166e-03
	5.269107267345226e-04
	1.982356323926526e-01

 108	1.080000000000001e+00
	-6.784924913789583e-15
	-7.097708900336762e-18
	-3.665133858912257e-14
	1.523136729481688e-05
	2.309125119258513e-03
	5.497121898484793e-04
	1.982383935722236e-01

 109	1.090000000000001e+00
	-6.803961942401119e-15
	-7.237793860989298e-18
	-3.668875663986795e-14
	1.570044496263610e-05
	2.362926998223534e-03
	5.730540460317643e-04
	1.982412203824517e-01

 110	1.100000000000001e+00
	-6.823351004857943e-15
	-7.380594435101753e-18
	-3.672480909613533e-14
	1.617876947382824e-05
	2.416022832587320e-03
	5.969294667370286e-04
	1.982441117181983e-01

 111	1.110000000000001e+00
	-6.843080392220026e-15
	-7.526167152639974e-18
	-3.675952344873448e-14
	1.666644170061994e-05
	2.468366157181493e-03
	6.213311368588823e-04
	1.982470664221260e-01

 112	1.120000000000001e+00
	-6.863138684582289e-15
	-7.674569897781780e-18
	-3.679292682520944e-14
	1.716356979334979e-05
	2.519915141412227e-03
	6.462513008819448e-04
	1.982500832923587e-01

 113	1.130000000000001e+00
	-6.883514747537780e-15
	-7.825861945548700e-18
	-3.682504598437851e-14
	1.767026970522839e-05
	2.570632599132299e-03
	6.716818093070606e-04
	1.982531610899509e-01

 114	1.140000000000001e+00
	-6.904197728491396e-15
	-7.980103999544190e-18
	-3.685590731155032e-14
	1.818666571551195e-05
	2.620485962789746e-03
	6.976141649873555e-04
	1.982562985461188e-01

 115	1.150000000000001e+00
	-6.925177052837196e-15
	-8.137358230833118e-18
	-3.688553681438623e-14
	1.871289095157719e-05
	2.669447224389881e-03
	7.240395690299409e-04
	1.982594943691662e-01

 116	1.160000000000001e+00
	-6.946442420012696e-15
	-8.297688318003402e-18
	-3.691396011937942e-14
	1.924908791060062e-05
	2.717492846036765e-03
	7.509489659456115e-04
	1.982627472510982e-01

 117	1.170000000000001e+00
	-6.967983799441926e-15
	-8.461159488447511e-18
	-3.694120246892253e-14
	1.979540898175397e-05
	2.764603642988155e-03
	7.783330877575651e-04
	1.982660558738609e-01

 118	1.180000000000001e+00
	-6.989791426379480e-15
	-8.627838560904942e-18
	-3.696728871893529e-14
	2.035201697002334e-05
	2.810764642266348e-03
	8.061824968100797e-04
	1.982694189152081e-01

 119	1.190000000000001e+00
	-7.011855797666461e-15
	-8.797793989309450e-18
	-3.699224333702457e-14
	2.091908562294783e-05
	2.855964919920431e-03
	8.344876270489175e-04
	1.982728350541442e-01

 120	1.200000000000001e+00
	-7.034167667409442e-15
	-8.971095907981396e-18
	-3.701609040115038e-14
	2.149680016174640e-05
	2.900197420037022e-03
	8.632388235761343e-04
	1.982763029759717e-01

 121	1.210000000000001e+00
	-7.056718042592627e-15
	-9.147816178215080e-18
	-3.703885359877059e-14
	2.208535781847035e-05
	2.943458758552794e-03
	8.924263803128409e-04
	1.982798213769147e-01

 122	1.220000000000001e+00
	-7.079498178632657e-15
	-9.328028436301238e-18
	-3.706055622644029e-14
	2.268496838097515e-05
	2.985749014837683e-03
	9.220405756336196e-04
	1.982833889683034e-01

 123	1.230000000000001e+00
	-7.102499574886103e-15
	-9.511808143040108e-18
	-3.708122118983938e-14
	2.329585474765114e-05
	3.027071513897904e-03
	9.520717058652379e-04
	1.982870044803697e-01

 124	1.240000000000001e+00
	-7.125713970117721e-15
	-9.699232634787884e-18
	-3.710087100420548e-14
	2.391825349399816e-05
	3.067432601900650e-03
	9.825101165702591e-04
	1.982906666656118e-01

 125	1.250000000000001e+00
	-7.149133337938203e-15
	-9.890381176094213e-18
	-3.711952779514808e-14
	2.455241545326232e-05
	3.106841417550436e-03
	1.013346231562155e-03
	1.982943743017612e-01

 126	1.260000000000001e+00
	-7.172749882219608e-15
	-1.008533501397922e-17
	-3.713721329982164e-14
	2.519860631348347e-05
	3.145309661658096e-03
	1.044570579622804e-03
	1.982981261943907e-01

 127	1.270000000000001e+00
	-7.196556032495148e-15
	-1.028417743390972e-17
	-3.715394886843608e-14
	2.585710723343561e-05
	3.182851367042488e-03
	1.076173818915842e-03
	1.983019211791240e-01

 128	1.280000000000001e+00
	-7.220544439351244e-15
	-1.048699381752887e-17
	-3.716975546608282e-14
	2.652821548006492e-05
	3.219482670694829e-03
	1.108146759109382e-03
	1.983057581235155e-01

 129	1.290000000000001e+00
	-7.244707969817841e-15
	-1.069387170219982e-17
	-3.718465367485675e-14
	2.721224509016284e-05
	3.255221589923428e-03
	1.140480381239970e-03
	1.983096359286000e-01

 130	1.300000000000001e+00
	-7.269039702763591e-15
	-1.090490084242596e-17
	-3.719866369625438e-14
	2.790952755914173e-05
	3.290087803983976e-03
	1.173165855365675e-03
	1.983135535301275e-01

 131	1.310000000000001e+00
	-7.293532924301312e-15
	-1.112017327321036e-17
	-3.721180535382938e-14
	2.862041255991628e-05
	3.324102442491809e-03
	1.206194556070114e-03
	1.983175098995174e-01

 132	1.320000000000001e+00
	-7.318181123209723e-15
	-1.133978337542241e-17
	-3.722409809608707e-14
	2.934526869503716e-05
	3.357287881710554e-03
	1.239558075891185e-03
	1.983215040445429e-01

 133	1.330000000000001e+00
	-7.342977986375801e-15
	-1.156382794323874e-17
	-3.723556099960163e-14
	3.008448428537101e-05
	3.389667549617986e-03
	1.273248236758098e-03
	1.983255350097821e-01

 134	1.340000000000001e+00
	-7.367917394263070e-15
	-1.179240625373075e-17
	-3.724621277233788e-14
	3.083846819878626e-05
	3.421265740467786e-03
	1.307257099528506e-03
	1.983296018768269e-01

 135	1.350000000000001e+00
	-7.392993416409864e-15
	-1.202562013867459e-17
	-3.725607175716324e-14
	3.160765072246881e-05
	3.452107439394532e-03
	1.341576971723592e-03
	1.983337037643109e-01

 136	1.360000000000001e+00
	-7.418200306961635e-15
	-1.226357405865728e-17
	-3.726515593553368e-14
	3.239248448268511e-05
	3.482218157452633e-03
	1.376200413563810e-03
	1.983378398277406e-01

 137	1.370000000000001e+00
	-7.443532500241034e-15
	-1.250637517956376e-17
	-3.727348293133982e-14
	3.319344541600596e-05
	3.511623777335498e-03
	1.411120242410992e-03
	1.983420092591684e-01

 138	1.380000000000001e+00
	-7.468984606359265e-15
	-1.275413345152059e-17
	-3.728107001489858e-14
	3.401103379622634e-05
	3.540350409891706e-03
	1.446329535724342e-03
	1.983462112867247e-01

 139	1.390000000000001e+00
	-7.494551406871820e-15
	-1.300696169039257e-17
	-3.728793410707793e-14
	3.484577532145422e-05
	3.568424261439133e-03
	1.481821632638383e-03
	1.983504451740231e-01

 140	1.400000000000001e+00
	-7.520227850480906e-15
	-1.326497566191186e-17
	-3.729409178354201e-14
	3.569822226610592e-05
	3.595871511776251e-03
	1.517590134270475e-03
	1.983547102194337e-01

 141	1.410000000000001e+00
	-7.546009048788291e-15
	-1.352829416853960e-17
	-3.729955927910416e-14
	3.656895470282036e-05
	3.622718202700211e-03
	1.553628902863723e-03
	1.983590057553045e-01

 142	1.420000000000001e+00
	-7.571890272099609e-15
	-1.379703913915509e-17
	-3.730435249217689e-14
	3.745858179963308e-05
	3.648990136767300e-03
	1.589932059869342e-03
	1.983633311470472e-01

 143	1.430000000000001e+00
	-7.597866945283187e-15
	-1.407133572166768e-17
	-3.730848698930819e-14
	3.836774319807119e-05
	3.674712785965378e-03
	1.626493983068878e-03
	1.983676857922062e-01

 144	1.440000000000001e+00
	-7.623934643684632e-15
	-1.435131237866506e-17
	-3.731197800979347e-14
	3.929711047822103e-05
	3.699911209917485e-03
	1.663309302833723e-03
	1.983720691194348e-01

 145	1.450000000000001e+00
	-7.650089089099284e-15
	-1.463710098619924e-17
	-3.731484047035344e-14
	4.024738871721398e-05
	3.724609983192352e-03
	1.700372897614874e-03
	1.983764805874424e-01

 146	1.460000000000001e+00
	-7.676326145803404e-15
	-1.492883693582188e-17
	-3.731708896986937e-14
	4.121931814802753e-05
	3.748833131265802e-03
	1.737679888751732e-03
	1.983809196838989e-01

 147	1.470000000000001e+00
	-7.702641816646201e-15
	-1.522665923999309e-17
	-3.731873779416607e-14
	4.221367592597750e-05
	3.772604074652629e-03
	1.775225634683825e-03
	1.983853859243310e-01

 148	1.480000000000001e+00
	-7.729032239202853e-15
	-1.553071064097642e-17
	-3.731980092083511e-14
	4.323127801081679e-05
	3.795945580713241e-03
	1.813005724644769e-03
	1.983898788509757e-01

 149	1.490000000000001e+00
	-7.755493681989943e-15
	-1.584113772335231e-17
	-3.732029202409009e-14
	4.427298117292134e-05
	3.818879722628979e-03
	1.851015971912381e-03
	1.983943980316386e-01

 150	1.500000000000001e+00
	-7.782022540743919e-15
	-1.615809103027894e-17
	-3.732022447964697e-14
	4.533968513268462e-05
	3.841427845037529e-03
	1.889252406684048e-03
	1.983989430585478e-01

 151	1.510000000000001e+00
	-7.808615334763333e-15
	-1.648172518363265e-17
	-3.731961136962210e-14
	4.643233484292298e-05
	3.863610535821297e-03
	1.927711268641252e-03
	1.984035135472124e-01

 152	1.520000000000001e+00
	-7.835268703314836e-15
	-1.681219900817892e-17
	-3.731846548744193e-14
	4.755192292485218e-05
	3.885447603548362e-03
	1.966388999262288e-03
	1.984081091352757e-01

 153	1.530000000000001e+00
	-7.861979402103483e-15
	-1.714967565991051e-17
	-3.731679934275822e-14