Title: ** sch_path: /home/andylithia/openmpw/project-yatsuhashi-chip1/xschem/gmid_test/nmos_test.sch
Date: Sun Jul 17 22:51:45  2022
Plotname: DC transfer characteristic
Flags: real
No. Variables: 8
No. Points: 181
Variables:
	0	v(v-sweep)	voltage
	1	@m.xm1.msky130_fd_pr__nfet_01v8[cgb]	capacitance
	2	@m.xm1.msky130_fd_pr__nfet_01v8[cgd]	capacitance
	3	@m.xm1.msky130_fd_pr__nfet_01v8[cgs]	capacitance
	4	@m.xm1.msky130_fd_pr__nfet_01v8[gds]	admittance
	5	@m.xm1.msky130_fd_pr__nfet_01v8[gm]	admittance
	6	i(@m.xm1.msky130_fd_pr__nfet_01v8[id])	current
	7	v(@m.xm1.msky130_fd_pr__nfet_01v8[vth])	voltage
Values:
 0	0.000000000000000e+00
	-5.694969734812438e-15
	5.925065260853528e-19
	-4.517327602516325e-15
	3.905124160096101e-08
	1.195772911303192e-06
	1.094508712412905e-07
	3.987560224711186e-01

 1	1.000000000000000e-02
	-5.638148447578375e-15
	5.899580199313063e-19
	-4.636381186632800e-15
	4.352574655526135e-08
	1.331835808294211e-06
	1.220769003875439e-07
	3.987560237283433e-01

 2	2.000000000000000e-02
	-5.581455880588034e-15
	5.864545623061340e-19
	-4.756986422000551e-15
	4.850276389686541e-08
	1.483083096041322e-06
	1.361381687917051e-07
	3.987560251284813e-01

 3	3.000000000000000e-02
	-5.524911721878521e-15
	5.819522773591929e-19
	-4.879092256077180e-15
	5.403698776978996e-08
	1.651169385729485e-06
	1.517946535192637e-07
	3.987560266874636e-01

 4	4.000000000000000e-02
	-5.468536365746954e-15
	5.764068589466159e-19
	-5.002644731350507e-15
	6.018877320875889e-08
	1.837925415065516e-06
	1.692237435676812e-07
	3.987560284229524e-01

 5	5.000000000000000e-02
	-5.412350857942867e-15
	5.697736217766052e-19
	-5.127587058454492e-15
	6.702467412605343e-08
	2.045376673538474e-06
	1.886220926168252e-07
	3.987560303545285e-01

 6	6.000000000000000e-02
	-5.356376838076840e-15
	5.620075525094271e-19
	-5.253859700249475e-15
	7.461802474719002e-08
	2.275764092512940e-06
	2.102076681479259e-07
	3.987560325038965e-01

 7	7.000000000000001e-02
	-5.300636479445958e-15
	5.530633604539127e-19
	-5.381400466707940e-15
	8.304956679179427e-08
	2.531567062432394e-06
	2.342220188593382e-07
	3.987560348951127e-01

 8	8.000000000000000e-02
	-5.245152426497317e-15
	5.428955274930850e-19
	-5.510144620379913e-15
	9.240812461908270e-08
	2.815529078693763e-06
	2.609327851216532e-07
	3.987560375548236e-01

 9	9.000000000000000e-02
	-5.189947730170662e-15
	5.314583568655526e-19
	-5.640024992143503e-15
	1.027913304388900e-07
	3.130686363133482e-06
	2.906364804513514e-07
	3.987560405125558e-01

 10	9.999999999999999e-02
	-5.135045781379206e-15
	5.187060204231403e-19
	-5.770972106880459e-15
	1.143064015236269e-07
	3.480399860284535e-06
	3.236615757066153e-07
	3.987560438010194e-01

 11	1.100000000000000e-01
	-5.080470242904401e-15
	5.045926039856231e-19
	-5.902914318649503e-15
	1.270709711375961e-07
	3.868391067356471e-06
	3.603719219922007e-07
	3.987560474564443e-01

 12	1.200000000000000e-01
	-5.026244979995065e-15
	4.890721504131658e-19
	-6.035777954866358e-15
	1.412139746218240e-07
	4.298782224975139e-06
	4.011705531825667e-07
	3.987560515189634e-01

 13	1.300000000000000e-01
	-4.972393989974179e-15
	4.720987000217808e-19
	-6.169487468937761e-15
	1.568765917287388e-07
	4.776141472732288e-06
	4.465039146196146e-07
	3.987560560330340e-01

 14	1.400000000000000e-01
	-4.918941331167070e-15
	4.536263279733418e-19
	-6.303965600737921e-15
	1.742132458855581e-07
	5.305533660042738e-06
	4.968665710052559e-07
	3.987560610479043e-01

 15	1.500000000000000e-01
	-4.865911051473277e-15
	4.336091782816869e-19
	-6.439133544260552e-15
	1.933926605724694e-07
	5.892577598990652e-06
	5.528064538857616e-07
	3.987560666181364e-01

 16	1.600000000000000e-01
	-4.813327116910100e-15
	4.120014940881411e-19
	-6.574911121728933e-15
	2.145989724263177e-07
	6.543510651770437e-06
	6.149307175120124e-07
	3.987560728041895e-01

 17	1.700000000000000e-01
	-4.761213340459367e-15
	3.887576438747522e-19
	-6.711216963400193e-15
	2.380329000180865e-07
	7.265261660588465e-06
	6.839122813531761e-07
	3.987560796730765e-01

 18	1.800000000000000e-01
	-4.709593311549899e-15
	3.638321433008854e-19
	-6.847968692259407e-15
	2.639129664994211e-07
	8.065533351546196e-06
	7.604971482299882e-07
	3.987560872990829e-01

 19	1.900000000000000e-01
	-4.658490326506229e-15
	3.371796723684724e-19
	-6.985083112763255e-15
	2.924767734673893e-07
	8.952895474434463e-06
	8.455125989936700e-07
	3.987560957645913e-01

 20	2.000000000000000e-01
	-4.607927320290061e-15
	3.087550876429416e-19
	-7.122476402764926e-15
	3.239823224573459e-07
	9.936890075045632e-06
	9.398763779645173e-07
	3.987561051609940e-01

 21	2.100000000000000e-01
	-4.557926799853845e-15
	2.785134292802122e-19
	-7.260064307728751e-15
	3.587093794417465e-07
	1.102815043198243e-05
	1.044606997984274e-06
	3.987561155897162e-01

 22	2.200000000000001e-01
	-4.508510779416534e-15
	2.464099226364739e-19
	-7.397762336327276e-15
	3.969608765920066e-07
	1.223853532120730e-05
	1.160835309913848e-06
	3.987561271633748e-01

 23	2.300000000000001e-01
	-4.459700717959584e-15
	2.123999742628488e-19
	-7.535485956505214e-15
	4.390643443569224e-07
	1.358128039244057e-05
	1.289817498651058e-06
	3.987561400070684e-01

 24	2.400000000000001e-01
	-4.411517459227192e-15
	1.764391621161684e-19
	-7.673150791092058e-15
	4.853733656334940e-07
	1.507116854399455e-05
	1.432949686108276e-06
	3.987561542598307e-01

 25	2.500000000000001e-01
	-4.363981174498210e-15
	1.384832198451991e-19
	-7.810672812050889e-15
	5.362690424667797e-07
	1.672472125687732e-05
	1.591784340846510e-06
	3.987561700762673e-01

 26	2.600000000000001e-01
	-4.317111308378642e-15
	9.848801504105534e-20
	-7.947968532463183e-15
	5.921614643304033e-07
	1.856041288310018e-05
	1.768048713869517e-06
	3.987561876283953e-01

 27	2.700000000000001e-01
	-4.270926527843523e-15
	5.640952136948477e-20
	-8.084955195368465e-15
	6.534911656281231e-07
	2.059890986300978e-05
	1.963665539968546e-06
	3.987562071076993e-01

 28	2.800000000000001e-01
	-4.225444674734694e-15
	1.220378453289045e-20
	-8.221550958603600e-15
	7.207305586432155e-07
	2.286333675586401e-05
	2.180776263352602e-06
	3.987562287274464e-01

 29	2.900000000000001e-01
	-4.180682721897838e-15
	-3.417311796178705e-20
	-8.357675074818554e-15
	7.943853267745133e-07
	2.537957078838921e-05
	2.421767064305775e-06
	3.987562527252870e-01

 30	3.000000000000001e-01
	-4.136656733117351e-15
	-8.276512322632997e-20
	-8.493248065884542e-15
	8.749957615681612e-07
	2.817656633736503e-05
	2.689297979292569e-06
	3.987562793661390e-01

 31	3.100000000000001e-01
	-4.093381826982197e-15
	-1.336162355724412e-19
	-8.628191890953167e-15
	9.631380258177613e-07
	3.128671034247347e-05
	2.986335419078838e-06
	3.987563089454506e-01

 32	3.200000000000001e-01
	-4.050872144789559e-15
	-1.867705851971232e-19
	-8.762430107476073e-15
	1.059425323905968e-06
	3.474620907196738e-05
	3.316188396633900e-06
	3.987563417927839e-01

 33	3.300000000000001e-01
	-4.009140822566676e-15
	-2.422724928890797e-19
	-8.895888024545974e-15
	1.164508959637060e-06
	3.859550591305816e-05
	3.682548777157245e-06
	3.987563782758500e-01

 34	3.400000000000001e-01
	-3.968199967264172e-15
	-3.001665406566284e-19
	-9.028492847980546e-15
	1.279079261115580e-06
	4.287972890948999e-05
	4.089535854669498e-06
	3.987564188049263e-01

 35	3.500000000000001e-01
	-3.928060637147800e-15
	-3.604976481522220e-19
	-9.160173816628793e-15
	1.403866351803120e-06
	4.764916560076306e-05
	4.541745541108297e-06
	3.987564638377791e-01

 36	3.600000000000002e-01
	-3.888732826389007e-15
	-4.233111547572008e-19
	-9.290862329446120e-15
	1.539640746790634e-06
	5.295976131563218e-05
	5.044304422531314e-06
	3.987565138850351e-01

 37	3.700000000000002e-01
	-3.850225453829137e-15
	-4.886529071699263e-19
	-9.420492062948310e-15
	1.687213753599861e-06
	5.887363542729124e-05
	5.602928890433504e-06
	3.987565695160785e-01

 38	3.800000000000002e-01
	-3.812546355867179e-15
	-5.565693523323811e-19
	-9.548999078723110e-15
	1.847437657527371e-06
	6.545960818837814e-05
	6.223989491907320e-06
	3.987566313654678e-01

 39	3.900000000000002e-01
	-3.775702283397021e-15
	-6.271076355196547e-19
	-9.676321920746317e-15
	2.021205672706901e-06
	7.279372864059165e-05
	6.914580557997501e-06
	3.987567001398578e-01

 40	4.000000000000002e-01
	-3.739698902697990e-15
	-7.003157034076794e-19
	-9.802401702316278e-15
	2.209451641726108e-06
	8.095979176010837e-05
	7.682595062893168e-06
	3.987567766254828e-01

 41	4.100000000000002e-01
	-3.704540800160804e-15
	-7.762424119366651e-19
	-9.927182182490302e-15
	2.413149468820191e-06
	9.004983049633391e-05
	8.536804535653966e-06
	3.987568616961020e-01

 42	4.200000000000002e-01
	-3.670231490711894e-15
	-8.549376387801169e-19
	-1.005060983197106e-14
	2.633312274383914e-06
	1.001645657465463e-04
	9.486943689539190e-06
	3.987569563214401e-01

 43	4.300000000000002e-01
	-3.636773429781061e-15
	-9.364524002365971e-19
	-1.017263388845698e-14
	2.870991261796595e-06
	1.114137946627742e-04
	1.054379925099600e-05
	3.987570615760386e-01

 44	4.400000000000002e-01
	-3.604168028641453e-15
	-1.020838972363208e-18
	-1.029320640153205e-14
	3.127274291312617e-06
	1.239166951117932e-04
	1.171930226112755e-05
	3.987571786484553e-01

 45	4.500000000000002e-01
	-3.572415672936672e-15
	-1.108151016178234e-18
	-1.041228226723074e-14
	3.403284159987699e-06
	1.378020217295456e-04
	1.302662288833718e-05
	3.987573088507153e-01

 46	4.600000000000002e-01
	-3.541515744197745e-15
	-1.198443706770650e-18
	-1.052981925246915e-14
	3.700176591214382e-06
	1.532081669745412e-04
	1.448026653451113e-05
	3.987574536278852e-01

 47	4.700000000000003e-01
	-3.511466644142558e-15
	-1.291773866164798e-18
	-1.064577800958613e-14
	4.019137942327622e-06
	1.702830590574724e-04
	1.609616974282107e-05
	3.987576145676383e-01

 48	4.800000000000003e-01
	-3.482265821542149e-15
	-1.388200099804898e-18
	-1.076012208128660e-14
	4.361382643783358e-06
	1.891838677882549e-04
	1.789179412901281e-05
	3.987577934096073e-01

 49	4.900000000000003e-01
	-3.453909801432130e-15
	-1.487782936537548e-18
	-1.087281789632300e-14
	4.728150388449827e-06
	2.100764894274834e-04
	1.988621626777343e-05
	3.987579920543551e-01

 50	5.000000000000002e-01
	-3.426394216443429e-15
	-1.590584971991744e-18
	-1.098383475629015e-14
	5.120703094401219e-06
	2.331347827476651e-04
	2.210021118125374e-05
	3.987582125716873e-01

 51	5.100000000000002e-01
	-3.399713840024128e-15
	-1.696671015270519e-18
	-1.109314481394356e-14
	5.540321669057269e-06
	2.585395308800316e-04
	2.455632680971754e-05
	3.987584572080751e-01

 52	5.200000000000002e-01
	-3.373862621323908e-15
	-1.806108238892000e-18
	-1.120072304348059e-14
	5.988302606352142e-06
	2.864771073008158e-04
	2.727894660795931e-05
	3.987587283928973e-01

 53	5.300000000000002e-01
	-3.348833721513712e-15
	-1.918966331936832e-18
	-1.130654720324904e-14
	6.465954451617826e-06
	3.171378296134212e-04
	3.029433722032201e-05
	3.987590287431869e-01

 54	5.400000000000003e-01
	-3.324619551316410e-15
	-2.035317656381097e-18
	-1.141059779136711e-14
	6.974594170808886e-06
	3.507139916718289e-04
	3.363067805746928e-05
	3.987593610665803e-01

 55	5.500000000000003e-01
	-3.301211809528509e-15
	-2.155237406614826e-18
	-1.151285799475445e-14
	7.515543461387267e-06
	3.873975730582059e-04
	3.731806954547909e-05
	3.987597283621289e-01

 56	5.600000000000003e-01
	-3.278601522318909e-15
	-2.278803772168675e-18
	-1.161331363208347e-14
	8.090125041462226e-06
	4.273776348809942e-04
	4.138851685770517e-05
	3.987601338186814e-01

 57	5.700000000000003e-01
	-3.256779083097659e-15
	-2.406098103693202e-18
	-1.171195309116704e-14
	8.699658951545973e-06
	4.708374221101677e-04
	4.587588608625513e-05
	3.987605808105061e-01

 58	5.800000000000003e-01
	-3.235734292755905e-15
	-2.537205082256624e-18
	-1.180876726129967e-14
	9.345458899501340e-06
	5.179512049204976e-04
	5.081583007440635e-05
	3.987610728898891e-01

 59	5.900000000000003e-01
	-3.215456400087311e-15
	-2.672212892047611e-18
	-1.190374946106722e-14
	1.002882867398125e-05
	5.688809043728217e-04
	5.624568152193591e-05
	3.987616137764783e-01

 60	6.000000000000003e-01
	-3.195934142210907e-15
	-2.811213396593212e-18
	-1.199689536213466e-14
	1.075105864504651e-05
	6.237725607285569e-04
	6.220431149579560e-05
	3.987622073431620e-01

 61	6.100000000000003e-01
	-3.177155784826148e-15
	-2.954302318619132e-18
	-1.208820290951178e-14
	1.151342236294698e-05
	6.827527151771777e-04
	6.873195212685382e-05
	3.987628575983977e-01

 62	6.200000000000003e-01
	-3.159109162141494e-15
	-3.101579423705115e-18
	-1.217767223878552e-14
	1.231717325763596e-05
	7.459247871103417e-04
	7.586998304153793e-05
	3.987635686649069e-01

 63	6.300000000000003e-01
	-3.141781716329504e-15
	-3.253148707904760e-18
	-1.226530559079241e-14
	1.316354143290019e-05
	8.133655386143798e-04
	8.366068195016284e-05
	3.987643447548089e-01

 64	6.400000000000003e-01
	-3.125160536372569e-15
	-3.409118589524523e-18
	-1.235110722418896e-14
	1.405373054057992e-05
	8.851217248968582e-04
	9.214694076992656e-05
	3.987651901413205e-01

 65	6.500000000000004e-01
	-3.109232396175168e-15
	-3.569602105276132e-18
	-1.243508332635937e-14
	1.498891471280012e-05
	9.612070332819949e-04
	1.013719496715624e-04
	3.987661091272504e-01

 66	6.600000000000004e-01
	-3.093983791829921e-15
	-3.734717111040197e-18
	-1.251724192308034e-14
	1.597023552404671e-05
	1.041599413671387e-03
	1.113788524703364e-04
	3.987671060106523e-01

 67	6.700000000000004e-01
	-3.079400977935999e-15
	-3.904586487503951e-18
	-1.259759278734315e-14
	1.699879895087711e-05
	1.126238899580905e-03
	1.222103777956377e-04
	3.987681850480513e-01

 68	6.800000000000004e-01
	-3.065470002879765e-15
	-4.079338350959919e-18
	-1.267614734771135e-14
	1.807567229555780e-05
	1.215026010827553e-03
	1.339084514269864e-04
	3.987693504158236e-01

 69	6.900000000000004e-01
	-3.052176742997848e-15
	-4.259106269582488e-18
	-1.275291859657237e-14
	1.920188104136911e-05
	1.307820816667380e-03
	1.465137960352783e-04
	3.987706061702853e-01

 70	7.000000000000004e-01
	-3.039506935553992e-15
	-4.444029485525274e-18
	-1.282792099861839e-14
	2.037840561191891e-05
	1.404442721930141e-03
	1.600655252749532e-04
	3.987719562072591e-01

 71	7.100000000000004e-01
	-3.027446210470208e-15
	-4.634253143216014e-18
	-1.290117039987218e-14
	2.160617801461341e-05
	1.504671018958687e-03
	1.746007396983021e-04
	3.987734042218040e-01

 72	7.200000000000004e-01
	-3.015980120763176e-15
	-4.829928524257819e-18
	-1.297268393755112e-14
	2.288607835923030e-05
	1.608246225667852e-03
	1.901541322757721e-04
	3.987749536689228e-01

 73	7.300000000000004e-01
	-3.005094171645241e-15
	-5.031213289382687e-18
	-1.304247995104284e-14
	2.421893125592447e-05
	1.714872205717568e-03
	2.067576113832498e-04
	3.987766077259952e-01

 74	7.400000000000004e-01
	-2.994773848258661e-15
	-5.238271727937242e-18
	-1.311057789424445e-14
	2.560550211231832e-05
	1.824219041722517e-03
	2.244399489459340e-04
	3.987783692577436e-01

 75	7.500000000000004e-01
	-2.985004642019536e-15
	-5.451275015423142e-18
	-1.317699824949801e-14
	2.704649336577813e-05
	1.935926607758794e-03
	2.432264610073205e-04
	3.987802407844159e-01

 76	7.600000000000005e-01
	-2.975772075555797e-15
	-5.670401479652940e-18
	-1.324176244333442e-14
	2.854254070358254e-05
	2.049608764349611e-03
	2.631387273311561e-04
	3.987822244538662e-01

 77	7.700000000000005e-01
	-2.967061726231073e-15
	-5.895836876123177e-18
	-1.330489276421854e-14
	3.009420933941407e-05
	2.164858078727980e-03
	2.841943557658665e-04
	3.987843220181114e-01

 78	7.800000000000005e-01
	-2.958859248252821e-15
	-6.127774673250495e-18
	-1.336641228246918e-14
	3.170199042842151e-05
	2.281250956458200e-03
	3.064067960373132e-04
	3.987865348147882e-01

 79	7.900000000000005e-01
	-2.951150393369793e-15
	-6.366416348156511e-18
	-1.342634477250837e-14
	3.336629771402155e-05
	2.398353058220550e-03
	3.297852064275433e-04
	3.987888637539002e-01

 80	8.000000000000005e-01
	-2.943921030169861e-15
	-6.611971693730446e-18
	-1.348471463757558e-14
	3.508746450683629e-05
	2.515724868248080e-03
	3.543343754922139e-04
	3.987913093100469e-01

 81	8.100000000000005e-01
	-2.937157161994733e-15
	-6.864659137741296e-18
	-1.354154683702393e-14
	3.686574109907408e-05
	2.632927278791068e-03
	3.800546996186099e-04
	3.987938715202046e-01

 82	8.200000000000005e-01
	-2.930844943493345e-15
	-7.124706074810711e-18
	-1.359686681629705e-14
	3.870129271590021e-05
	2.749527058025800e-03
	4.069422158816858e-04
	3.987965499870376e-01

 83	8.300000000000005e-01
	-2.924970695840224e-15
	-7.392349212101456e-18
	-1.365070043966780e-14
	4.059419809885722e-05
	2.865102076697194e-03
	4.349886883676925e-04
	3.987993438875063e-01

 84	8.400000000000005e-01
	-2.919520920649756e-15
	-7.667834929612208e-18
	-1.370307392580127e-14
	4.254444880536888e-05
	2.979246180919575e-03
	4.641817449487660e-04
	3.988022519865269e-01

 85	8.500000000000005e-01
	-2.914482312620731e-15
	-7.951419656012952e-18
	-1.375401378618894e-14
	4.455194929332213e-05
	3.091573614196728e-03
	4.945050604466672e-04
	3.988052726552320e-01

 86	8.600000000000005e-01
	-2.909841770949262e-15
	-8.243370260991613e-18
	-1.380354676648279e-14
	4.661651784134672e-05
	3.201722909959689e-03
	5.259385812494031e-04
	3.988084038933716e-01

 87	8.700000000000006e-01
	-2.905586409550917e-15
	-8.543964465121792e-18
	-1.385169979074367e-14
	4.873788833463040e-05
	3.309360195791467e-03
	5.584587857621430e-04
	3.988116433552716e-01

 88	8.800000000000006e-01
	-2.901703566135594e-15
	-8.853491268300205e-18
	-1.389849990860213e-14
	5.091571292389605e-05
	3.414181871033433e-03
	5.920389745942966e-04
	3.988149883787650e-01

 89	8.900000000000006e-01
	-2.898180810180513e-15
	-9.172251397843694e-18
	-1.394397424531681e-14
	5.314956554260149e-05
	3.515916639726412e-03
	6.266495841098603e-04
	3.988184360164299e-01

 90	9.000000000000006e-01
	-2.895005949848692e-15
	-9.500557777370999e-18
	-1.398814995470155e-14
	5.543894624548920e-05
	3.614326900005459e-03
	6.622585168904421e-04
	3.988219830685318e-01

 91	9.100000000000006e-01
	-2.892167037901114e-15
	-9.838736017643408e-18
	-1.403105417488113e-14
	5.778328631128572e-05
	3.709209508459415e-03
	6.988314827656532e-04
	3.988256261170028e-01

 92	9.200000000000006e-01
	-2.889652376651915e-15
	-1.018712493057612e-17
	-1.407271398682447e-14
	6.018195403438719e-05
	3.800395953059690e-03
	7.363323443325754e-04
	3.988293615598678e-01

 93	9.300000000000006e-01
	-2.887450522016260e-15
	-1.054607706768146e-17
	-1.411315637559433e-14
	6.263426111540589e-05
	3.887751980707657e-03
	7.747234612900535e-04
	3.988331856455541e-01

 94	9.400000000000006e-01
	-2.885550286700665e-15
	-1.091595928425342e-17
	-1.415240819424480e-14
	6.513946954893157e-05
	3.971176735063955e-03
	8.139660284271089e-04
	3.988370945065695e-01

 95	9.500000000000006e-01
	-2.883940742585283e-15
	-1.129715333065740e-17
	-1.419049613029015e-14
	6.769679889898037e-05
	4.050601467078336e-03
	8.540204026989694e-04
	3.988410841920763e-01

 96	9.600000000000006e-01
	-2.882611222347312e-15
	-1.169005647214061e-17
	-1.422744667466297e-14
	7.030543384841937e-05
	4.125987884642655e-03
	8.948464154711510e-04
	3.988451506990157e-01

 97	9.700000000000006e-01
	-2.881551320373552e-15
	-1.209508213864626e-17
	-1.426328609307468e-14
	7.296453190803670e-05
	4.197326209259428e-03
	9.364036666854704e-04
	3.988492900013954e-01

 98	9.800000000000006e-01
	-2.880750893009553e-15
	-1.251266060617296e-17
	-1.429804039968773e-14
	7.567323117356132e-05
	4.264633006847200e-03
	9.786517983774333e-04
	3.988534980775453e-01

 99	9.900000000000007e-01
	-2.880200058191235e-15
	-1.294323971129286e-17
	-1.433173533300618e-14
	7.843065802447163e-05
	4.327948857142459e-03
	1.021550745632274e-03
	3.988577709351143e-01

 100	1.000000000000001e+00
	-2.879889194503609e-15
	-1.338728560051995e-17
	-1.436439633388942e-14
	8.123593466637231e-05
	4.387335921977726e-03
	1.065060963689669e-03
	3.988621046336897e-01

 101	1.010000000000001e+00
	-2.879808939709777e-15
	-1.384528351629316e-17
	-1.439604852559293e-14
	8.408818642855155e-05
	4.442875467392863e-03
	1.109143630481698e-03
	3.988664953049687e-01

 102	1.020000000000001e+00
	-2.879950188791601e-15
	-1.431773862142897e-17
	-1.442671669573994e-14
	8.698654873954101e-05
	4.494665388432802e-03
	1.153760824405649e-03
	3.988709391704656e-01

 103	1.030000000000001e+00
	-2.880304091541848e-15
	-1.480517686398783e-17
	-1.445642528012768e-14
	8.993017371557299e-05
	4.542817778928583e-03
	1.198875677586755e-03
	3.988754325567708e-01

 104	1.040000000000001e+00
	-2.880862049745889e-15
	-1.530814588459246e-17
	-1.448519834827368e-14
	9.291823630927165e-05
	4.587456581839996e-03
	1.244452505272649e-03
	3.988799719084428e-01

 105	1.050000000000001e+00
	-2.881615713988923e-15
	-1.582721596834299e-17
	-1.451305959060845e-14
	9.594993997834501e-05
	4.628715349102189e-03
	1.290456912321606e-03
	3.988845537986008e-01

 106	1.060000000000001e+00
	-2.882556980123352e-15
	-1.636298104357381e-17
	-1.454003230722303e-14
	9.902452184603179e-05
	4.666735133560078e-03
	1.336855878001416e-03
	3.988891749373740e-01

 107	1.070000000000001e+00
	-2.883677985428654e-15
	-1.691605972982083e-17
	-1.456613939808182e-14
	1.021412573363962e-04
	4.701662529645568e-03
	1.383617820509898e-03
	3.988938321783136e-01

 108	1.080000000000001e+00
	-2.884971104494551e-15
	-1.748709643747610e-17
	-1.459140335461394e-14
	1.052994642779358e-04
	4.733647874056486e-03
	1.430712642765061e-03
	3.988985225229613e-01

 109	1.090000000000001e+00
	-2.886428944856376e-15
	-1.807676252174689e-17
	-1.461584625259850e-14
	1.084985064783014e-04
	4.762843612901801e-03
	1.478111761099934e-03
	3.989032431236862e-01

 110	1.100000000000001e+00
	-2.888044342409837e-15
	-1.868575749365197e-17
	-1.463948974626218e-14
	1.117377967810459e-04
	4.789402837615138e-03
	1.525788118538831e-03
	3.989079912850126e-01

 111	1.110000000000001e+00
	-2.889810356630491e-15
	-1.931481029094224e-17
	-1.466235506351070e-14
	1.150167996222406e-04
	4.813477988414881e-03
	1.573716184336046e-03
	3.989127644635607e-01

 112	1.120000000000001e+00
	-2.891720265621865e-15
	-1.996468061196940e-17
	-1.468446300221796e-14
	1.183350331104827e-04
	4.835219721183727e-03
	1.621871941429813e-03
	3.989175602667962e-01

 113	1.130000000000001e+00
	-2.893767561014186e-15
	-2.063616031568026e-17
	-1.470583392750032e-14
	1.216920706583343e-04
	4.854775931321262e-03
	1.670232863410772e-03
	3.989223764507215e-01

 114	1.140000000000001e+00
	-2.895945942734381e-15
	-2.133007489107400e-17
	-1.472648776990614e-14
	1.250875421966048e-04
	4.872290926340507e-03
	1.718777882529719e-03
	3.989272109166964e-01

 115	1.150000000000001e+00
	-2.898249313666285e-15
	-2.204728499962751e-17
	-1.474644402445356e-14
	1.285211350052871e-04
	4.887904737682941e-03
	1.767487350180647e-03
	3.989320617074810e-01

 116	1.160000000000001e+00
	-2.900671774218746e-15
	-2.278868809436285e-17
	-1.476572175045280e-14
	1.319925941963719e-04
	4.901752561353793e-03
	1.816342991194559e-03
	3.989369270026881e-01

 117	1.170000000000001e+00
	-2.903207616817687e-15
	-2.355522011941473e-17
	-1.478433957205166e-14
	1.355017228844165e-04
	4.913964316475940e-03
	1.865327853173319e-03
	3.989418051137301e-01

 118	1.180000000000001e+00
	-2.905851320336947e-15
	-2.434785729414327e-17
	-1.480231567944631e-14
	1.390483820806779e-04
	4.924664310665283e-03
	1.914426251982545e-03
	3.989466944783789e-01

 119	1.190000000000001e+00
	-2.908597544481541e-15
	-2.516761798602782e-17
	-1.481966783070149e-14
	1.426324903459620e-04
	4.933971001190310e-03
	1.963623714411959e-03
	3.989515936550565e-01

 120	1.200000000000001e+00
	-2.911441124135530e-15
	-2.601556467678748e-17
	-1.483641335412765e-14
	1.462540232362202e-04
	4.941996841142706e-03
	2.012906918902728e-03
	3.989565013169241e-01

 121	1.210000000000001e+00
	-2.914377063685597e-15
	-2.689280602637409e-17
	-1.485256915116475e-14
	1.499130125734236e-04
	4.948848200268520e-03
	2.062263635135998e-03
	3.989614162458571e-01

 122	1.220000000000001e+00
	-2.917400531330535e-15
	-2.780049903970669e-17
	-1.486815169972489e-14
	1.536095455724364e-04
	4.954625350650188e-03
	2.111682663176091e-03
	3.989663373263876e-01

 123	1.230000000000001e+00
	-2.920506853385359e-15
	-2.873985134123969e-17
	-1.488317705794869e-14
	1.573437638526382e-04
	4.959422508054233e-03
	2.161153772767382e-03
	3.989712635396485e-01

 124	1.240000000000001e+00
	-2.923691508588060e-15
	-2.971212356267741e-17
	-1.489766086833260e-14
	1.611158623608985e-04
	4.963327920436793e-03
	2.210667643295546e-03
	3.989761939573915e-01

 125	1.250000000000001e+00
	-2.926950122416057e-15
	-3.071863184940072e-17
	-1.491161836218626e-14
	1.649260882303197e-04
	4.966423995805538e-03
	2.260215804842690e-03
	3.989811277361153e-01

 126	1.260000000000001e+00
	-2.930278461418265e-15
	-3.176075049139777e-17
	-1.492506436438169e-14
	1.687747395969444e-04
	4.968787462350783e-03
	2.309790580691805e-03
	3.989860641113337e-01

 127	1.270000000000001e+00
	-2.933672427568020e-15
	-3.283991468474549e-17
	-1.493801329835792e-14
	1.726621643944333e-04
	4.970489554465067e-03
	2.359385031568836e-03
	3.989910023920202e-01

 128	1.280000000000001e+00
	-2.937128052641320e-15
	-3.395762342994477e-17
	-1.495047919134649e-14
	1.765887591445879e-04
	4.971596218955945e-03
	2.408992901850680e-03
	3.989959419552503e-01

 129	1.290000000000001e+00
	-2.940641492623856e-15
	-3.511544257366051e-17
	-1.496247567978571e-14
	1.805549677595512e-04
	4.972168336412516e-03
	2.458608567914018e-03
	3.990008822410479e-01

 130	1.300000000000001e+00
	-2.944209022149798e-15
	-3.631500800067557e-17
	-1.497401601489289e-14
	1.845612803695618e-04
	4.972261953304415e-03
	2.508226988752661e-03
	3.990058227474804e-01

 131	1.310000000000001e+00
	-2.947827028974485e-15
	-3.755802898314827e-17
	-1.498511306836552e-14
	1.886082321883586e-04
	4.971928520969848e-03
	2.557843658950444e-03
	3.990107630259537e-01

 132	1.320000000000001e+00
	-2.951492008482570e-15
	-3.884629169448587e-17
	-1.499577933818461e-14
	1.926964024265926e-04
	4.971215138181542e-03
	2.607454564060545e-03
	3.990157026767776e-01

 133	1.330000000000001e+00
	-2.955200558232602e-15
	-4.018166289544550e-17
	-1.500602695449411e-14
	1.968264132620891e-04
	4.970164794468064e-03
	2.657056138412090e-03
	3.990206413449670e-01

 134	1.340000000000001e+00
	-2.958949372538298e-15
	-4.156609380030414e-17
	-1.501586768553280e-14
	2.009989288743837e-04
	4.968816611810874e-03
	2.706645225339053e-03
	3.990255787162678e-01

 135	1.350000000000001e+00
	-2.962735237086491e-15
	-4.300162413119475e-17
	-1.502531294359544e-14
	2.052146545496471e-04
	4.967206082735469e-03
	2.756219039804398e-03
	3.990305145134428e-01

 136	1.360000000000001e+00
	-2.966555023590946e-15
	-4.449038636894942e-17
	-1.503437379100246e-14
	2.094743358610067e-04
	4.965365303172260e-03
	2.805775133375110e-03
	3.990354484927752e-01

 137	1.370000000000001e+00
	-2.970405684481094e-15
	-4.603461020901608e-17
	-1.504306094605759e-14
	2.137787579282132e-04
	4.963323198778142e-03
	2.855311361488598e-03
	3.990403804408173e-01

 138	1.380000000000001e+00
	-2.974284247623966e-15
	-4.763662723123129e-17
	-1.505138478897512e-14
	2.181287447597459e-04
	4.961105743688663e-03
	2.904825852940035e-03
	3.990453101713419e-01

 139	1.390000000000001e+00
	-2.978187811077575e-15
	-4.929887579242205e-17
	-1.505935536775875e-14
	2.225251586796173e-04
	4.958736170913613e-03
	2.954316981510485e-03
	3.990502375225194e-01

 140	1.400000000000001e+00
	-2.982113537873277e-15
	-5.102390615098248e-17
	-1.506698240401582e-14
	2.269688998404952e-04
	4.956235173800541e-03
	3.003783339649487e-03
	3.990551623542991e-01

 141	1.410000000000001e+00
	-2.986058650824763e-15
	-5.281438583271155e-17
	-1.507427529869095e-14
	2.314609058241734e-04
	4.953621098172384e-03
	3.053223714120775e-03
	3.990600845459814e-01

 142	1.420000000000001e+00
	-2.990020427360503e-15
	-5.467310524730503e-17
	-1.508124313770502e-14
	2.360021513299221e-04
	4.950910124900915e-03
	3.102637063516649e-03
	3.990650039939735e-01

 143	1.430000000000001e+00
	-2.993996194376793e-15
	-5.660298356495006e-17
	-1.508789469748531e-14
	2.405936479508431e-04
	4.948116442809095e-03
	3.152022497544853e-03
	3.990699206097387e-01

 144	1.440000000000001e+00
	-2.997983323107850e-15
	-5.860707486250166e-17
	-1.509423845037454e-14
	2.452364440380510e-04
	4.945252411906161e-03
	3.201379257991593e-03
	3.990748343178842e-01

 145	1.450000000000001e+00
	-3.001979224009622e-15
	-6.068857454864996e-17
	-1.510028256990624e-14
	2.499316246521783e-04
	4.942328717049961e-03
	3.250706701264255e-03
	3.990797450544378e-01

 146	1.460000000000001e+00
	-3.005981341653502e-15
	-6.285082607740849e-17
	-1.510603493593585e-14
	2.546803116015722e-04
	4.939354512206610e-03
	3.300004282419531e-03
	3.990846527652470e-01

 147	1.470000000000001e+00
	-3.009987149626385e-15
	-6.509732795903401e-17
	-1.511150313961645e-14
	2.594836635663325e-04
	4.936337555537024e-03
	3.349271540583907e-03
	3.990895574045301e-01

 148	1.480000000000001e+00
	-3.013994145433208e-15
	-6.743174107722054e-17
	-1.511669448820984e-14
	2.643428763072716e-04
	4.933284335587761e-03
	3.398508085676499e-03
	3.990944589335585e-01

 149	1.490000000000001e+00
	-3.017999845398112e-15
	-6.985789632104549e-17
	-1.512161600972358e-14
	2.692591829588258e-04
	4.930200188899991e-03
	3.447713586347113e-03
	3.990993573194458e-01

 150	1.500000000000001e+00
	-3.022001779560748e-15
	-7.237980253960380e-17
	-1.512627445736549e-14
	2.742338544048748e-04
	4.927089409377205e-03
	3.496887759045392e-03
	3.991042525340676e-01

 151	1.510000000000001e+00
	-3.025997486563905e-15
	-7.500165482667690e-17
	-1.513067631380778e-14
	2.792681997364877e-04
	4.923955349771418e-03
	3.546030358140818e-03
	3.991091445530786e-01

 152	1.520000000000001e+00
	-3.029984508529063e-15
	-7.772784314198216e-17
	-1.513482779525367e-14
	2.843635667906236e-04
	4.920800515659726e-03
	3.595141167016832e-03
	3.991140333550179e-01

 153	1.530000000000001e+00
	-3.033960385916754e-15
	-8.056296127457746e-17
	-1.513873485529946e-14
	2.895213427688570e-04
	4.917626652289056e-03