Title: ** sch_path: /home/andylithia/openmpw/project-yatsuhashi-chip1/xschem/gmid_test/nmos_test.sch
Date: Sun Jul 17 22:51:45  2022
Plotname: DC transfer characteristic
Flags: real
No. Variables: 8
No. Points: 181
Variables:
	0	v(v-sweep)	voltage
	1	@m.xm1.msky130_fd_pr__nfet_01v8[cgb]	capacitance
	2	@m.xm1.msky130_fd_pr__nfet_01v8[cgd]	capacitance
	3	@m.xm1.msky130_fd_pr__nfet_01v8[cgs]	capacitance
	4	@m.xm1.msky130_fd_pr__nfet_01v8[gds]	admittance
	5	@m.xm1.msky130_fd_pr__nfet_01v8[gm]	admittance
	6	i(@m.xm1.msky130_fd_pr__nfet_01v8[id])	current
	7	v(@m.xm1.msky130_fd_pr__nfet_01v8[vth])	voltage
Values:
 0	0.000000000000000e+00
	-9.987869644839209e-15
	-4.383259912419862e-18
	-1.822056428134174e-14
	1.789481716786767e-08
	6.076415673311835e-07
	7.416313426966330e-08
	2.023194449683433e-01

 1	1.000000000000000e-02
	-9.876177700882661e-15
	-4.505437179458684e-18
	-1.848327465791425e-14
	1.935221077633469e-08
	6.593029903132351e-07
	8.049430056360240e-08
	2.023194457249953e-01

 2	2.000000000000000e-02
	-9.765839625018623e-15
	-4.631084034043537e-18
	-1.874575765820490e-14
	2.092233369750850e-08
	7.154200097007022e-07
	8.736403837897094e-08
	2.023194465460201e-01

 3	3.000000000000000e-02
	-9.656880511413470e-15
	-4.760302387479932e-18
	-1.900791578341773e-14
	2.261324744698496e-08
	7.763956249058140e-07
	9.481888732827818e-08
	2.023194474369754e-01

 4	4.000000000000000e-02
	-9.549324742575346e-15
	-4.893197357317747e-18
	-1.926965199586681e-14
	2.443352200900042e-08
	8.426723483039296e-07
	1.029096112673892e-07
	2.023194484039305e-01

 5	5.000000000000000e-02
	-9.443195942824142e-15
	-5.029877379303486e-18
	-1.953086984873446e-14
	2.639226144607159e-08
	9.147363823134432e-07
	1.116916139554560e-07
	2.023194494535132e-01

 6	6.000000000000000e-02
	-9.338516933940860e-15
	-5.170454323706869e-18
	-1.979147361416796e-14
	2.849913024775092e-08
	9.931222405199983e-07
	1.212253986720285e-07
	2.023194505929489e-01

 7	7.000000000000001e-02
	-9.235309693096535e-15
	-5.315043616208357e-18
	-2.005136840937020e-14
	3.076438039792012e-08
	1.078417854342496e-06
	1.315770764370860e-07
	2.023194518301434e-01

 8	8.000000000000000e-02
	-9.133595313152306e-15
	-5.463764363548543e-18
	-2.031046032035170e-14
	3.319887913683851e-08
	1.171270209204717e-06
	1.428189279071813e-07
	2.023194531737384e-01

 9	9.000000000000000e-02
	-9.033393965413651e-15
	-5.616739484144585e-18
	-2.056865652301850e-14
	3.581413739095275e-08
	1.272391556521495e-06
	1.550300244723001e-07
	2.023194546331825e-01

 10	9.999999999999999e-02
	-8.934724864913188e-15
	-5.774095843891485e-18
	-2.082586540128221e-14
	3.862233884030563e-08
	1.382566249971917e-06
	1.682969145521036e-07
	2.023194562188265e-01

 11	1.100000000000000e-01
	-8.837606238286265e-15
	-5.935964397375619e-18
	-2.108199666189349e-14
	4.163636959029866e-08
	1.502658256443273e-06
	1.827143815847975e-07
	2.023194579420014e-01

 12	1.200000000000000e-01
	-8.742055294294953e-15
	-6.102480334738981e-18
	-2.133696144571149e-14
	4.486984841151648e-08
	1.633619393605826e-06
	1.983862807137822e-07
	2.023194598151193e-01

 13	1.300000000000000e-01
	-8.648088197045309e-15
	-6.273783234442228e-18
	-2.159067243513878e-14
	4.833715750841341e-08
	1.776498347230789e-06
	2.154264617030065e-07
	2.023194618517951e-01

 14	1.400000000000000e-01
	-8.555720041933815e-15
	-6.450017222190699e-18
	-2.184304395746783e-14
	5.205347377488368e-08
	1.932450521989651e-06
	2.339597861466999e-07
	2.023194640669546e-01

 15	1.500000000000000e-01
	-8.464964834348025e-15
	-6.631331136295007e-18
	-2.209399208390148e-14
	5.603480049205755e-08
	2.102748779457802e-06
	2.541232475768836e-07
	2.023194664769782e-01

 16	1.600000000000000e-01
	-8.375835471137138e-15
	-6.817878699754803e-18
	-2.234343472402889e-14
	6.029799942121286e-08
	2.288795116269005e-06
	2.760672036061653e-07
	2.023194690998420e-01

 17	1.700000000000000e-01
	-8.288343724857910e-15
	-7.009818699367053e-18
	-2.259129171555715e-14
	6.486082324235693e-08
	2.492133333691792e-06
	2.999567297650550e-07
	2.023194719552839e-01

 18	1.800000000000000e-01
	-8.202500230791532e-15
	-7.207315172173688e-18
	-2.283748490911922e-14
	6.974194828697169e-08
	2.714462747183375e-06
	3.259731051931215e-07
	2.023194750649764e-01

 19	1.900000000000000e-01
	-8.118314476717595e-15
	-7.410537599580250e-18
	-2.308193824799710e-14
	7.496100751148688e-08
	2.957652980564692e-06
	3.543154408101430e-07
	2.023194784527305e-01

 20	2.000000000000000e-01
	-8.035794795421331e-15
	-7.619661109493661e-18
	-2.332457784262300e-14
	8.053862365646223e-08
	3.223759884194480e-06
	3.852024610147844e-07
	2.023194821447008e-01

 21	2.100000000000000e-01
	-7.954948359901644e-15
	-7.834866686841753e-18
	-2.356533203973920e-14
	8.649644253505413e-08
	3.515042609729066e-06
	4.188744503192186e-07
	2.023194861696137e-01

 22	2.200000000000001e-01
	-7.875781181238353e-15
	-8.056341392857651e-18
	-2.380413148611884e-14
	9.285716639324324e-08
	3.833981865570441e-06
	4.555953766128589e-07
	2.023194905590397e-01

 23	2.300000000000001e-01
	-7.798298109068072e-15
	-8.284278593530747e-18
	-2.404090918677398e-14
	9.964458728360573e-08
	4.183299366757563e-06
	4.956552029393765e-07
	2.023194953476514e-01

 24	2.400000000000001e-01
	-7.722502834610718e-15
	-8.518878197642735e-18
	-2.427560055759356e-14
	1.068836203939056e-07
	4.565978480669366e-06
	5.393723997479472e-07
	2.023195005735352e-01

 25	2.500000000000001e-01
	-7.648397896180559e-15
	-8.760346904832285e-18
	-2.450814347237859e-14
	1.146003372718460e-07
	4.985286055331022e-06
	5.870966695224728e-07
	2.023195062785137e-01

 26	2.600000000000001e-01
	-7.575984687108200e-15
	-9.008898464152039e-18
	-2.473847830426065e-14
	1.228219988877052e-07
	5.444795400189056e-06
	6.392118954773383e-07
	2.023195125084919e-01

 27	2.700000000000001e-01
	-7.505263465993786e-15
	-9.264753943601668e-18
	-2.496654796150942e-14
	1.315770884775192e-07
	5.948410369819816e-06
	6.961393256116905e-07
	2.023195193138550e-01

 28	2.800000000000001e-01
	-7.436233369204745e-15
	-9.528142011151990e-18
	-2.519229791775695e-14
	1.408953441110018e-07
	6.500390479053441e-06
	7.583410028109705e-07
	2.023195267498620e-01

 29	2.900000000000001e-01
	-7.368892425526411e-15
	-9.799299227793019e-18
	-2.541567623668158e-14
	1.508077909305366e-07
	7.105376953351807e-06
	8.263234508475000e-07
	2.023195348770986e-01

 30	3.000000000000001e-01
	-7.303237572868075e-15
	-1.007847035317228e-17
	-2.563663359121649e-14
	1.613467730105504e-07
	7.768419590948874e-06
	9.006416250357310e-07
	2.023195437619396e-01

 31	3.100000000000001e-01
	-7.239264676923047e-15
	-1.036590866441262e-17
	-2.585512327736232e-14
	1.725459847903777e-07
	8.495004283251116e-06
	9.819031349140703e-07
	2.023195534770666e-01

 32	3.200000000000001e-01
	-7.176968551676852e-15
	-1.066187628873461e-17
	-2.607110122270169e-14
	1.844405020386408e-07
	9.291081007389024e-06
	1.070772744629001e-06
	2.023195641019953e-01

 33	3.300000000000001e-01
	-7.116342981654637e-15
	-1.096664455053404e-17
	-2.628452598972842e-14
	1.970668123132265e-07
	1.016309206973930e-05
	1.167977154661582e-06
	2.023195757236549e-01

 34	3.400000000000001e-01
	-7.057380745795911e-15
	-1.128049433360294e-17
	-2.649535877411869e-14
	2.104628448884770e-07
	1.111800034193424e-05
	1.274310066139293e-06
	2.023195884369930e-01

 35	3.500000000000001e-01
	-7.000073642842431e-15
	-1.160371645921540e-17
	-2.670356339808591e-14
	2.246680001303293e-07
	1.216331719164202e-05
	1.390637526195573e-06
	2.023196023456147e-01

 36	3.600000000000002e-01
	-6.944412518123802e-15
	-1.193661208083773e-17
	-2.690910629897217e-14
	2.397231783112498e-07
	1.330712976965090e-05
	1.517903549658522e-06
	2.023196175624587e-01

 37	3.700000000000002e-01
	-6.890387291623347e-15
	-1.227949309626046e-17
	-2.711195651324303e-14
	2.556708078700675e-07
	1.455812727303706e-05
	1.657136008756382e-06
	2.023196342104927e-01

 38	3.800000000000002e-01
	-6.837986987207676e-15
	-1.263268257798940e-17
	-2.731208565605930e-14
	2.725548731376630e-07
	1.592562576206310e-05
	1.809452778512893e-06
	2.023196524234630e-01

 39	3.900000000000002e-01
	-6.787199762901981e-15
	-1.299651522278147e-17
	-2.750946789661226e-14
	2.904209415683495e-07
	1.741959106670194e-05
	1.976068121072045e-06
	2.023196723466507e-01

 40	4.000000000000002e-01
	-6.738012942094163e-15
	-1.337133782125054e-17
	-2.770407992941466e-14
	3.093161905389162e-07
	1.905065927816069e-05
	2.158299287344512e-06
	2.023196941376650e-01

 41	4.100000000000002e-01
	-6.690413045552195e-15
	-1.375750974852197e-17
	-2.789590094174739e-14
	3.292894338034784e-07
	2.083015428249988e-05
	2.357573309127078e-06
	2.023197179672516e-01

 42	4.200000000000002e-01
	-6.644385824139844e-15
	-1.415540347695904e-17
	-2.808491257746738e-14
	3.503911477227458e-07
	2.277010175850006e-05
	2.575433949237341e-06
	2.023197440201299e-01

 43	4.300000000000002e-01
	-6.599916292118346e-15
	-1.456540511204742e-17
	-2.827109889738748e-14
	3.726734974218879e-07
	2.488323903154970e-05
	2.813548771270061e-06
	2.023197724958423e-01

 44	4.400000000000002e-01
	-6.556988760923326e-15
	-1.498791495257127e-17
	-2.845444633644255e-14
	3.961903630723658e-07
	2.718302015082079e-05
	3.073716284369571e-06
	2.023198036095980e-01

 45	4.500000000000002e-01
	-6.515586873309475e-15
	-1.542334807627950e-17
	-2.863494365785756e-14
	4.209973665405582e-07
	2.968361553975070e-05
	3.357873111990295e-06
	2.023198375931409e-01

 46	4.600000000000002e-01
	-6.475693637758152e-15
	-1.587213495230177e-17
	-2.881258190453682e-14
	4.471518987006902e-07
	3.239990556132050e-05
	3.668101127066534e-06
	2.023198746956028e-01

 47	4.700000000000003e-01
	-6.437291463046051e-15
	-1.633472208164304e-17
	-2.898735434789260e-14
	4.747131477720322e-07
	3.534746734124882e-05
	4.006634489424632e-06
	2.023199151843423e-01

 48	4.800000000000003e-01
	-6.400362192877306e-15
	-1.681157266715029e-17
	-2.915925643433173e-14
	5.037421291114766e-07
	3.854255420547486e-05
	4.375866514756812e-06
	2.023199593457654e-01

 49	4.900000000000003e-01
	-6.364887140484788e-15
	-1.730316731442597e-17
	-2.932828572961698e-14
	5.343017169734448e-07
	4.200206711456151e-05
	4.778356298158955e-06
	2.023200074861201e-01

 50	5.000000000000002e-01
	-6.330847123110316e-15
	-1.781000476523223e-17
	-2.949444186131844e-14
	5.664566788402649e-07
	4.574351751818702e-05
	5.216835009250391e-06
	2.023200599322493e-01

 51	5.100000000000002e-01
	-6.298222496277836e-15
	-1.833260266502464e-17
	-2.965772645956690e-14
	6.002737130289266e-07
	4.978498110882874e-05
	5.694211770392207e-06
	2.023201170322945e-01

 52	5.200000000000002e-01
	-6.266993187778033e-15
	-1.887149836632716e-17
	-2.981814309631766e-14
	6.358214903951760e-07
	5.414504202596384e-05
	6.213579024659409e-06
	2.023201791563319e-01

 53	5.300000000000002e-01
	-6.237138731287146e-15
	-1.942724976976223e-17
	-2.997569722332876e-14
	6.731707010843967e-07
	5.884272715122164e-05
	6.778217296167532e-06
	2.023202466969441e-01

 54	5.400000000000003e-01
	-6.208638299547303e-15
	-2.000043620464294e-17
	-3.013039610905277e-14
	7.123941074216459e-07
	6.389743024120078e-05
	7.391599242278437e-06
	2.023203200697029e-01

 55	5.500000000000003e-01
	-6.181470737040600e-15
	-2.059165935113695e-17
	-3.028224877463573e-14
	7.535666041914671e-07
	6.932882576795453e-05
	8.057392895281751e-06
	2.023203997135548e-01

 56	5.600000000000003e-01
	-6.155614592093130e-15
	-2.120154420611917e-17
	-3.043126592921102e-14
	7.967652877329263e-07
	7.515677247687733e-05
	8.779463990538645e-06
	2.023204860910914e-01

 57	5.700000000000003e-01
	-6.131048148350969e-15
	-2.183074009494588e-17
	-3.057745990466874e-14
	8.420695354674615e-07
	8.140120682675676e-05
	9.561877278937490e-06
	2.023205796887189e-01

 58	5.800000000000003e-01
	-6.107749455573099e-15
	-2.247992173150300e-17
	-3.072084459007557e-14
	8.895610976883061e-07
	8.808202664552384e-05
	1.040889672400177e-05
	2.023206810166588e-01

 59	5.900000000000003e-01
	-6.085696359692919e-15
	-2.314979032900657e-17
	-3.086143536591133e-14
	9.393242036706084e-07
	9.521896551542172e-05
	1.132498448822036e-05
	2.023207906088363e-01

 60	6.000000000000003e-01
	-6.064866532102410e-15
	-2.384107476416927e-17
	-3.099924903828237e-14
	9.914456844134178e-07
	1.028314585902789e-04
	1.231479861925860e-05
	2.023209090225996e-01

 61	6.100000000000003e-01
	-6.045237498119267e-15
	-2.455453279749018e-17
	-3.113430377326329e-14
	1.046015114598696e-06
	1.109385007418842e-04
	1.338318935471156e-05
	2.023210368382715e-01

 62	6.200000000000003e-01
	-6.026786664600424e-15
	-2.529095235257270e-17
	-3.126661903151125e-14
	1.103124976650676e-06
	1.195584981283170e-04
	1.453519397402058e-05
	2.023211746585308e-01

 63	6.300000000000003e-01
	-6.009491346670322e-15
	-2.605115285752990e-17
	-3.139621550328859e-14
	1.162870850102773e-06
	1.287091144701648e-04
	1.577603013808374e-05
	2.023213231076106e-01

 64	6.400000000000003e-01
	-5.993328793536454e-15
	-2.683598665171324e-17
	-3.152311504402135e-14
	1.225351629831069e-06
	1.384071135061673e-04
	1.711108767089853e-05
	2.023214828303175e-01

 65	6.500000000000004e-01
	-5.978276213367978e-15
	-2.764634046116816e-17
	-3.164734061051413e-14
	1.290669777095590e-06
	1.486681992729842e-04
	1.854591875318028e-05
	2.023216544908589e-01

 66	6.600000000000004e-01
	-5.964310797217897e-15
	-2.848313694641180e-17
	-3.176891619793234e-14
	1.358931607746504e-06
	1.595068560093942e-04
	2.008622651515606e-05
	2.023218387714591e-01

 67	6.700000000000004e-01
	-5.951409741972497e-15
	-2.934733632631502e-17
	-3.188786677765550e-14
	1.430247622405335e-06
	1.709361896181394e-04
	2.173785203442947e-05
	2.023220363708280e-01

 68	6.800000000000004e-01
	-5.939550272315356e-15
	-3.023993808209907e-17
	-3.200421823609728e-14
	1.504732883926985e-06
	1.829677727239899e-04
	2.350675976471662e-05
	2.023222480023989e-01

 69	6.900000000000004e-01
	-5.928709661696475e-15
	-3.116198274565045e-17
	-3.211799731457981e-14
	1.582507447990927e-06
	1.956114954396329e-04
	2.539902144203361e-05
	2.023224743924158e-01

 70	7.000000000000004e-01
	-5.918865252300409e-15
	-3.211455377661006e-17
	-3.222923155034248e-14
	1.663696853268346e-06
	2.088754239878275e-04
	2.742079853626719e-05
	2.023227162778239e-01

 71	7.100000000000004e-01
	-5.909994474010183e-15
	-3.309877953292510e-17
	-3.233794921875729e-14
	1.748432678272996e-06
	2.227656693252993e-04
	2.957832333756416e-05
	2.023229744040255e-01

 72	7.200000000000004e-01
	-5.902074862366281e-15
	-3.411583533982157e-17
	-3.244417927681616e-14
	1.836853172739069e-06
	2.372862678687448e-04
	3.187787878825466e-05
	2.023232495224517e-01

 73	7.300000000000004e-01
	-5.895084075523303e-15
	-3.516694566240483e-17
	-3.254795130794752e-14
	1.929103972190624e-06
	2.524390763343643e-04
	3.432577719161427e-05
	2.023235423880393e-01

 74	7.400000000000004e-01
	-5.888999910208145e-15
	-3.625338638742275e-17
	-3.264929546821420e-14
	2.025338905290645e-06
	2.682236825693389e-04
	3.692833794826801e-05
	2.023238537565541e-01

 75	7.500000000000004e-01
	-5.883800316687219e-15
	-3.737648721998125e-17
	-3.274824243393552e-14
	2.125720904600052e-06
	2.846373340772075e-04
	3.969186448896372e-05
	2.023241843818478e-01

 76	7.600000000000005e-01
	-5.879463412750824e-15
	-3.853763420136222e-17
	-3.284482335077273e-14
	2.230423032560967e-06
	3.016748857214270e-04
	4.262262058840839e-05
	2.023245350130255e-01

 77	7.700000000000005e-01
	-5.875967496725671e-15
	-3.973827235440835e-17
	-3.293906978430895e-14
	2.339629635868757e-06
	3.193287678357081e-04
	4.572680625844591e-05
	2.023249063915643e-01

 78	7.800000000000005e-01
	-5.873291059527922e-15
	-4.097990846329894e-17
	-3.303101367214938e-14
	2.453537642944125e-06
	3.375889756805140e-04
	4.901053342970579e-05
	2.023252992484226e-01

 79	7.900000000000005e-01
	-5.871412795770017e-15
	-4.226411399492846e-17
	-3.312068727756262e-14
	2.572358020995724e-06
	3.564430808680543e-04
	5.247980163867089e-05
	2.023257143011118e-01

 80	8.000000000000005e-01
	-5.870311613937221e-15
	-4.359252816946714e-17
	-3.320812314467757e-14
	2.696317411216366e-06
	3.758762650396561e-04
	5.614047394163468e-05
	2.023261522508450e-01

 81	8.100000000000005e-01
	-5.869966645649378e-15
	-4.496686118812589e-17
	-3.329335405524624e-14
	2.825659963031860e-06
	3.958713757269822e-04
	5.999825327809123e-05
	2.023266137796924e-01

 82	8.200000000000005e-01
	-5.870357254025691e-15
	-4.638889762656622e-17
	-3.337641298697757e-14
	2.960649391077095e-06
	4.164090039698891e-04
	6.405865950359238e-05
	2.023270995478481e-01

 83	8.300000000000005e-01
	-5.871463041170341e-15
	-4.786050000286374e-17
	-3.345733307344316e-14
	3.101571281777792e-06
	4.374675829071099e-04
	6.832700730603136e-05
	2.023276101909800e-01

 84	8.400000000000005e-01
	-5.873263854798012e-15
	-4.938361252940725e-17
	-3.353614756555124e-14
	3.248735680146153e-06
	4.590235062093529e-04
	7.280838520969200e-05
	2.023281463177339e-01

 85	8.500000000000005e-01
	-5.875739794018168e-15
	-5.096026505863825e-17
	-3.361288979458239e-14
	3.402479991748619e-06
	4.810512648960476e-04
	7.750763585843236e-05
	2.023287085073524e-01

 86	8.600000000000005e-01
	-5.878871214298613e-15
	-5.259257723304202e-17
	-3.368759313677489e-14
	3.563172239880537e-06
	5.035236007737868e-04
	8.242933775319163e-05
	2.023292973075026e-01

 87	8.700000000000006e-01
	-5.882638731627558e-15
	-5.428276285037823e-17
	-3.376029097944666e-14
	3.731214723916930e-06
	5.264116744636990e-04
	8.757778860000610e-05
	2.023299132322771e-01

 88	8.800000000000006e-01
	-5.887023225895085e-15
	-5.603313445572012e-17
	-3.383101668863546e-14
	3.907048131748140e-06
	5.496852457516787e-04
	9.295699040315826e-05
	2.023305567604105e-01

 89	8.900000000000006e-01
	-5.892005843513573e-15
	-5.784610817246793e-17
	-3.389980357823759e-14
	4.091156167333292e-06
	5.733128638043262e-04
	9.857063641440845e-05
	2.023312283337031e-01

 90	9.000000000000006e-01
	-5.897567999297909e-15
	-5.972420878515028e-17
	-3.396668488062182e-14
	4.284070763921896e-06
	5.972620646476958e-04
	1.044221000239035e-04
	2.023319283557058e-01

 91	9.100000000000006e-01
	-5.903691377624715e-15
	-6.167007508749501e-17
	-3.403169371869349e-14
	4.486377964652496e-06
	6.214995732073057e-04
	1.105144256517920e-04
	2.023326571906113e-01

 92	9.200000000000006e-01
	-5.910357932890860e-15
	-6.368646550993459e-17
	-3.409486307938122e-14
	4.698724565327563e-06
	6.459915071563441e-04
	1.168503216722280e-04
	2.023334151624087e-01

 93	9.300000000000006e-01
	-5.917549889290233e-15
	-6.577626404144062e-17
	-3.415622578851611e-14
	4.921825629534709e-06
	6.707035798139334e-04
	1.234321553738716e-04
	2.023342025542768e-01

 94	9.400000000000006e-01
	-5.925249739927563e-15
	-6.794248646132732e-17
	-3.421581448707319e-14
	5.156473004341906e-06
	6.956012993736218e-04
	1.302619499335490e-04
	2.023350196082229e-01

 95	9.500000000000006e-01
	-5.933440245287683e-15
	-7.018828689744988e-17
	-3.427366160874107e-14
	5.403544986024937e-06
	7.206501618205406e-04
	1.373413833529104e-04
	2.023358665249452e-01

 96	9.600000000000006e-01
	-5.942104431077773e-15
	-7.251696472802065e-17
	-3.432979935878636e-14
	5.664017310259702e-06
	7.458158350086258e-04
	1.446717892820427e-04
	2.023367434639372e-01

 97	9.700000000000006e-01
	-5.951225585459422e-15
	-7.493197184510880e-17
	-3.438425969417684e-14
	5.938975670606461e-06
	7.710643315112278e-04
	1.522541596294146e-04
	2.023376505437915e-01

 98	9.800000000000006e-01
	-5.960787255687008e-15
	-7.743692029873209e-17
	-3.443707430492651e-14
	6.229630003721257e-06
	7.963621680223492e-04
	1.600891488344751e-04
	2.023385878427198e-01

 99	9.900000000000007e-01
	-5.970773244167178e-15
	-8.003559034136051e-17
	-3.448827459662587e-14
	6.537330820487322e-06
	8.216765092645014e-04
	1.681770796579123e-04
	2.023395553992352e-01

 100	1.000000000000001e+00
	-5.981167603954384e-15
	-8.273193889351611e-17
	-3.453789167411812e-14
	6.863587910252665e-06
	8.469752945447086e-04
	1.765179503250702e-04
	2.023405532130170e-01

 101	1.010000000000001e+00
	-5.991954633695818e-15
	-8.553010845212464e-17
	-3.458595632628279e-14
	7.210091801858723e-06
	8.722273452848205e-04
	1.851114428404021e-04
	2.023415812459018e-01

 102	1.020000000000001e+00
	-6.003118872038140e-15
	-8.843443646417273e-17
	-3.463249901188755e-14
	7.578738431601875e-06
	8.974024520276296e-04
	1.939569322749975e-04
	2.023426394229929e-01

 103	1.030000000000001e+00
	-6.014645091507935e-15
	-9.144946518919809e-17
	-3.467754984646807e-14
	7.971657546345127e-06
	9.224714395787469e-04
	2.030534968150926e-04
	2.023437276338694e-01

 104	1.040000000000001e+00
	-6.026518291876133e-15
	-9.457995207510616e-17
	-3.472113859019566e-14
	8.391245461542300e-06
	9.474062090778384e-04
	2.123999283467675e-04
	2.023448457338529e-01

 105	1.050000000000001e+00
	-6.038723693016067e-15
	-9.783088067273843e-17
	-3.476329463669317e-14
	8.840202900986038e-06
	9.721797558948388e-04
	2.219947433405714e-04
	2.023459935453046e-01

 106	1.060000000000001e+00
	-6.051246727263528e-15
	-1.012074721156027e-16
	-3.480404700275817e-14
	9.321578769783036e-06
	9.967661623102571e-04
	2.318361937891180e-04
	2.023471708589500e-01

 107	1.070000000000001e+00
	-6.064073031285984e-15
	-1.047151971921122e-16
	-3.484342431895359e-14
	9.838820856552235e-06
	1.021140563958749e-03
	2.419222779405058e-04
	2.023483774351414e-01

 108	1.080000000000001e+00
	-6.077188437467743e-15
	-1.083597890385450e-16
	-3.488145482102540e-14
	1.039583462707610e-05
	1.045279088986487e-03
	2.522507505600722e-04
	2.023496130051082e-01

 109	1.090000000000001e+00
	-6.090578964815818e-15
	-1.121472564819036e-16
	-3.491816634210741e-14
	1.099705146105674e-05
	1.069158768794305e-03
	2.628191324422567e-04
	2.023508772720882e-01

 110	1.100000000000001e+00
	-6.104230809390628e-15
	-1.160838980626076e-16
	-3.495358630567412e-14
	1.164750789660178e-05
	1.092757419108802e-03
	2.736247188824378e-04
	2.023521699123359e-01

 111	1.110000000000001e+00
	-6.118130334265034e-15
	-1.201763167677478e-16
	-3.498774171920110e-14
	1.235293768212261e-05
	1.116053489947127e-03
	2.846645868052438e-04
	2.023534905759846e-01

 112	1.120000000000001e+00
	-6.132264059013407e-15
	-1.244314355063108e-16
	-3.502065916849521e-14
	1.311987868789779e-05
	1.139025882826983e-03
	2.959356002304897e-04
	2.023548388876945e-01

 113	1.130000000000001e+00
	-6.146618648732388e-15
	-1.288565133583619e-16
	-3.505236481265494e-14
	1.395579699014554e-05
	1.161653733337916e-03
	3.074344137402672e-04
	2.023562144470750e-01

 114	1.140000000000001e+00
	-6.161180902592798e-15
	-1.334591626306131e-16
	-3.508288437962398e-14
	1.486923069199163e-05
	1.183916156962450e-03
	3.191574735907751e-04
	2.023576168288090e-01

 115	1.150000000000001e+00
	-6.175937741923111e-15
	-1.382473667511088e-16
	-3.511224316229928e-14
	1.586995625971885e-05
	1.205791955860270e-03
	3.311010160904446e-04
	2.023590455824677e-01

 116	1.160000000000001e+00
	-6.190876197822463e-15
	-1.432294990358772e-16
	-3.514046601515744e-14
	1.696918028388286e-05
	1.227259284274994e-03
	3.432610628426969e-04
	2.023605002319396e-01

 117	1.170000000000001e+00
	-6.205983398301504e-15
	-1.484143423602736e-16
	-3.516757735136234e-14
	1.817975955389144e-05
	1.248295270392717e-03
	3.556334124289381e-04
	2.023619802744311e-01

 118	1.180000000000001e+00
	-6.221246554948590e-15
	-1.538111097673727e-16
	-3.519360114031869e-14
	1.951645205823069e-05
	1.268875593022379e-03
	3.682136280880063e-04
	2.023634851790062e-01

 119	1.190000000000001e+00
	-6.236652949118387e-15
	-1.594294660451568e-16
	-3.521856090563552e-14
	2.099620084127245e-05
	1.288974012589931e-03
	3.809970209371376e-04
	2.023650143845603e-01

 120	1.200000000000001e+00
	-6.252189917640115e-15
	-1.652795503031284e-16
	-3.524247972346514e-14
	2.263845135118069e-05
	1.308561857928322e-03
	3.939786282834427e-04
	2.023665672972474e-01

 121	1.210000000000001e+00
	-6.267844838042033e-15
	-1.713719995777128e-16
	-3.526538022118319e-14
	2.446550071519237e-05
	1.327607473590599e-03
	4.071531866048558e-04
	2.023681432872317e-01

 122	1.220000000000001e+00
	-6.283605113289621e-15
	-1.777179734938023e-16
	-3.528728457637608e-14
	2.650287390239041e-05
	1.346075637406662e-03
	4.205150988499227e-04
	2.023697416847864e-01

 123	1.230000000000001e+00
	-6.299458156035304e-15
	-1.843291800076032e-16
	-3.530821451610245e-14
	2.877971651183808e-05
	1.363926965348554e-03
	4.340583958375616e-04
	2.023713617756753e-01

 124	1.240000000000001e+00
	-6.315391372378327e-15
	-1.912179022528890e-16
	-3.532819131639510e-14
	3.132918641538488e-05
	1.381117331134395e-03
	4.477766917574219e-04
	2.023730027958262e-01

 125	1.250000000000001e+00
	-6.331392145134912e-15
	-1.983970265093157e-16
	-3.534723580197122e-14
	3.418881614275350e-05
	1.397597342030209e-03
	4.616631341124292e-04
	2.023746639253514e-01

 126	1.260000000000001e+00
	-6.347447816620755e-15
	-2.058800713072688e-16
	-3.536536834611701e-14
	3.740080431031052e-05
	1.413311930412972e-03
	4.757103489464770e-04
	2.023763442819891e-01

 127	1.270000000000001e+00
	-6.363545670950058e-15
	-2.136812176787597e-16
	-3.538260887071419e-14
	4.101217754826650e-05
	1.428200142660671e-03
	4.899103829023524e-04
	2.023780429141796e-01

 128	1.280000000000001e+00
	-6.379672915858565e-15
	-2.218153405583479e-16
	-3.539897684637402e-14
	4.507474507102814e-05
	1.442195231519672e-03
	5.042546445917115e-04
	2.023797587940485e-01

 129	1.290000000000001e+00
	-6.395816664062263e-15
	-2.302980413315726e-16
	-3.541449129264405e-14
	4.964474845899361e-05
	1.455225182051744e-03
	5.187338489416860e-04
	2.023814908107509e-01

 130	1.300000000000001e+00
	-6.411963914167063e-15
	-2.391456815212078e-16
	-3.542917077825213e-14
	5.478209366351482e-05
	1.467213818625437e-03
	5.333379695780898e-04
	2.023832377647878e-01

 131	1.310000000000001e+00
	-6.428101531150737e-15
	-2.483754175935908e-16
	-3.544303342135020e-14
	6.054904765123873e-05
	1.478082641863502e-03
	5.480562058037531e-04
	2.023849983640371e-01

 132	1.320000000000001e+00
	-6.444216226444076e-15
	-2.580052368579567e-16
	-3.545609688972028e-14
	6.700829804010771e-05
	1.487753517522168e-03
	5.628769721126136e-04
	2.023867712225223e-01

 133	1.330000000000001e+00
	-6.460294537643892e-15
	-2.680539944216561e-16
	-3.546837840090400e-14
	7.422032141046360e-05
	1.496152270350449e-03
	5.777879190944008e-04
	2.023885548628986e-01

 134	1.340000000000001e+00
	-6.476322807896770e-15
	-2.785414511517325e-16
	-3.547989472221863e-14
	8.224009343468880e-05
	1.503213114997644e-03
	5.927759945545957e-04
	2.023903477237796e-01

 135	1.350000000000001e+00
	-6.492287164997066e-15
	-2.894883125794462e-16
	-3.549066217062532e-14
	9.111330240127991e-05
	1.508883684059092e-03
	6.078275521730260e-04
	2.023921481727244e-01

 136	1.360000000000001e+00
	-6.508173500247992e-15
	-3.009162686669322e-16
	-3.550069661242038e-14
	1.008723831518245e-04
	1.513130211187530e-03
	6.229285116261360e-04
	2.023939545253969e-01

 137	1.370000000000001e+00
	-6.523967447137278e-15
	-3.128480343344940e-16
	-3.551001346272827e-14
	1.115328374833383e-04
	1.515942240581210e-03
	6.380645687095378e-04
	2.023957650707062e-01

 138	1.380000000000001e+00
	-6.539654359881490e-15
	-3.253073906220375e-16
	-3.551862768478584e-14
	1.230903996052438e-04
	1.517336128782370e-03
	6.532214470917224e-04
	2.023975781009114e-01

 139	1.390000000000001e+00
	-6.555219291897873e-15
	-3.383192263284905e-16
	-3.552655378901571e-14
	1.355195888442893e-04
	1.517356646441788e-03
	6.683851760596233e-04
	2.023993919448538e-01

 140	1.400000000000001e+00
	-6.570646974267327e-15
	-3.519095799399322e-16
	-3.553380583189657e-14
	1.487740358313451e-04
	1.516076211039473e-03
	6.835423726648707e-04
	2.024012050017022e-01

 141	1.410000000000001e+00
	-6.585921794263242e-15
	-3.661056816204397e-16
	-3.554039741464220e-14
	1.627886874578576e-04
	1.513591660811218e-03
	6.986805037892783e-04
	2.024030157722986e-01

 142	1.420000000000001e+00
	-6.601027774035996e-15
	-3.809359950015951e-16
	-3.554634168170046e-14
	1.774836564979002e-04
	1.510018923567779e-03
	7.137881049674434e-04
	2.024048228853302e-01

 143	1.430000000000001e+00
	-6.615948549563987e-15
	-3.964302584675160e-16
	-3.555165131907862e-14
	1.927691823710259e-04
	1.505486312746762e-03
	7.288549383399746e-04
	2.024066251162250e-01

 144	1.440000000000001e+00
	-6.630667350007662e-15
	-4.126195255930285e-16
	-3.555633855249223e-14
	2.085509997620940e-04
	1.500127384268441e-03
	7.438720806153720e-04
	2.024084213976683e-01

 145	1.450000000000001e+00
	-6.645166977630178e-15
	-4.295362043523997e-16
	-3.556041514532653e-14
	2.247354136187576e-04
	1.494074264149017e-03
	7.588319413142201e-04
	2.024102108217793e-01

 146	1.460000000000001e+00
	-6.659429788477540e-15
	-4.472140946742098e-16
	-3.556389239639212e-14
	2.412335318586755e-04
	1.487452141827446e-03
	7.737282197143122e-04
	2.024119926349664e-01

 147	1.470000000000001e+00
	-6.673437674035888e-15
	-4.656884238733630e-16
	-3.556678113745604e-14
	2.579643443012530e-04
	1.480375308065431e-03
	7.885558143190207e-04
	2.024137662270863e-01

 148	1.480000000000001e+00
	-6.687172044111593e-15
	-4.849958794424530e-16
	-3.556909173052865e-14
	2.748565794426599e-04
	1.472944800873574e-03
	8.033107008416719e-04
	2.024155311168614e-01

 149	1.490000000000001e+00
	-6.700613811200130e-15
	-5.051746386327252e-16
	-3.557083406489673e-14
	2.918494605161788e-04
	1.465247482302927e-03
	8.179897940476164e-04
	2.024172869353286e-01

 150	1.500000000000001e+00
	-6.713743376635983e-15
	-5.262643941980171e-16
	-3.557201755389883e-14
	3.088925929159037e-04
	1.457356233214054e-03
	8.325908062572127e-04
	2.024190334089412e-01

 151	1.510000000000001e+00
	-6.726540618834967e-15
	-5.483063756166675e-16
	-3.557265113145232e-14
	3.259452504288789e-04
	1.449330914419843e-03
	8.471121119219579e-04
	2.024207703433434e-01

 152	1.520000000000001e+00
	-6.738984883966656e-15
	-5.713433650446389e-16
	-3.557274324835010e-14
	3.429753087872972e-04
	1.441219772233610e-03
	8.615526242770912e-04
	2.024224976086339e-01

 153	1.530000000000001e+00
	-6.751054979415668e-15
	-5.954197071918164e-16
	-3.557230186835793e-14