!2-port S-parameter file
!Title: ** sch_path: /home/andylithia/openmpw/project-yatsuhashi-chip1/xschem/dumb_amp_1.sch
!Generated by ngspice at Wed Aug  3 22:30:36  2022
# Hz S RI R 50
!freq            ReS11           ImS11           ReS21           ImS21           ReS12           ImS12           ReS22           ImS22         
 1.000000e+09   7.812374e-01  -1.169110e-01  -2.405417e+00   2.583383e-01   7.602954e-02   9.492858e-04   5.913392e-01  -4.177469e-02  
 1.002305e+09   7.812040e-01  -1.171523e-01  -2.405331e+00   2.588926e-01   7.603044e-02   9.525021e-04   5.913324e-01  -4.187218e-02  
 1.004616e+09   7.811704e-01  -1.173936e-01  -2.405244e+00   2.594474e-01   7.603134e-02   9.557477e-04   5.913256e-01  -4.196992e-02  
 1.006932e+09   7.811268e-01  -1.177103e-01  -2.405139e+00   2.601042e-01   7.603208e-02   9.557912e-04   5.913191e-01  -4.206355e-02  
 1.009253e+09   7.810931e-01  -1.179516e-01  -2.405051e+00   2.606601e-01   7.603299e-02   9.590955e-04   5.913122e-01  -4.216179e-02  
 1.011579e+09   7.810493e-01  -1.182683e-01  -2.404946e+00   2.613179e-01   7.603373e-02   9.591979e-04   5.913057e-01  -4.225593e-02  
 1.013911e+09   7.810154e-01  -1.185097e-01  -2.404858e+00   2.618749e-01   7.603466e-02   9.625612e-04   5.912988e-01  -4.235469e-02  
 1.016249e+09   7.809815e-01  -1.187512e-01  -2.404770e+00   2.624324e-01   7.603559e-02   9.659541e-04   5.912918e-01  -4.245370e-02  
 1.018591e+09   7.809373e-01  -1.190679e-01  -2.404663e+00   2.630918e-01   7.603635e-02   9.661453e-04   5.912852e-01  -4.254860e-02  
 1.020939e+09   7.808935e-01  -1.193803e-01  -2.404544e+00   2.638427e-01   7.603707e-02   9.634805e-04   5.912753e-01  -4.270409e-02  
 1.023293e+09   7.808592e-01  -1.196218e-01  -2.404455e+00   2.644018e-01   7.603802e-02   9.669625e-04   5.912682e-01  -4.280387e-02  
 1.025652e+09   7.808245e-01  -1.198676e-01  -2.404378e+00   2.648705e-01   7.603901e-02   9.733601e-04   5.912643e-01  -4.284358e-02  
 1.028016e+09   7.807803e-01  -1.201800e-01  -2.404258e+00   2.656230e-01   7.603975e-02   9.707848e-04   5.912543e-01  -4.299984e-02  
 1.030386e+09   7.807454e-01  -1.204260e-01  -2.404180e+00   2.660928e-01   7.604075e-02   9.772423e-04   5.912504e-01  -4.304008e-02  
 1.032761e+09   7.807109e-01  -1.206675e-01  -2.404090e+00   2.666541e-01   7.604172e-02   9.808441e-04   5.912431e-01  -4.314089e-02  
 1.035142e+09   7.806660e-01  -1.209844e-01  -2.403981e+00   2.673172e-01   7.604251e-02   9.812448e-04   5.912363e-01  -4.323761e-02  
 1.037528e+09   7.806312e-01  -1.212260e-01  -2.403890e+00   2.678796e-01   7.604349e-02   9.849068e-04   5.912290e-01  -4.333895e-02  
 1.039920e+09   7.805861e-01  -1.215428e-01  -2.403781e+00   2.685438e-01   7.604430e-02   9.853679e-04   5.912221e-01  -4.343618e-02  
 1.042317e+09   7.805512e-01  -1.217845e-01  -2.403690e+00   2.691073e-01   7.604529e-02   9.890905e-04   5.912147e-01  -4.353805e-02  
 1.044720e+09   7.805058e-01  -1.221013e-01  -2.403580e+00   2.697726e-01   7.604611e-02   9.896123e-04   5.912077e-01  -4.363581e-02  
 1.047129e+09   7.804707e-01  -1.223430e-01  -2.403488e+00   2.703372e-01   7.604711e-02   9.933957e-04   5.912002e-01  -4.373820e-02  
 1.049542e+09   7.804251e-01  -1.226599e-01  -2.403377e+00   2.710036e-01   7.604794e-02   9.939785e-04   5.911932e-01  -4.383648e-02  
 1.051962e+09   7.803899e-01  -1.229017e-01  -2.403284e+00   2.715693e-01   7.604895e-02   9.978229e-04   5.911856e-01  -4.393940e-02  
 1.054387e+09   7.803441e-01  -1.232186e-01  -2.403173e+00   2.722368e-01   7.604979e-02   9.984669e-04   5.911785e-01  -4.403822e-02  
 1.056818e+09   7.803086e-01  -1.234604e-01  -2.403080e+00   2.728036e-01   7.605081e-02   1.002373e-03   5.911709e-01  -4.414167e-02  
 1.059254e+09   7.802626e-01  -1.237773e-01  -2.402968e+00   2.734722e-01   7.605166e-02   1.003078e-03   5.911637e-01  -4.424102e-02  
 1.061696e+09   7.802270e-01  -1.240191e-01  -2.402874e+00   2.740401e-01   7.605270e-02   1.007045e-03   5.911560e-01  -4.434500e-02  
 1.064143e+09   7.801807e-01  -1.243361e-01  -2.402761e+00   2.747098e-01   7.605356e-02   1.007813e-03   5.911487e-01  -4.444488e-02  
 1.066596e+09   7.801348e-01  -1.246488e-01  -2.402635e+00   2.754709e-01   7.605438e-02   1.005725e-03   5.911380e-01  -4.460535e-02  
 1.069055e+09   7.800984e-01  -1.248950e-01  -2.402554e+00   2.759496e-01   7.605548e-02   1.012671e-03   5.911336e-01  -4.464982e-02  
 1.071519e+09   7.800523e-01  -1.252077e-01  -2.402427e+00   2.767118e-01   7.605632e-02   1.010645e-03   5.911228e-01  -4.481082e-02  
 1.073989e+09   7.800055e-01  -1.255247e-01  -2.402313e+00   2.773837e-01   7.605720e-02   1.011537e-03   5.911154e-01  -4.491178e-02  
 1.076465e+09   7.799689e-01  -1.257710e-01  -2.402230e+00   2.778641e-01   7.605832e-02   1.018577e-03   5.911108e-01  -4.495706e-02  
 1.078947e+09   7.799327e-01  -1.260129e-01  -2.402134e+00   2.784360e-01   7.605940e-02   1.022762e-03   5.911029e-01  -4.506293e-02  
 1.081434e+09   7.798856e-01  -1.263300e-01  -2.402019e+00   2.791096e-01   7.606030e-02   1.023748e-03   5.910953e-01  -4.516470e-02  
 1.083927e+09   7.798492e-01  -1.265720e-01  -2.401923e+00   2.796826e-01   7.606139e-02   1.027995e-03   5.910873e-01  -4.527111e-02  
 1.086426e+09   7.797916e-01  -1.269599e-01  -2.401775e+00   2.805491e-01   7.606207e-02   1.022927e-03   5.910767e-01  -4.542937e-02  
 1.088930e+09   7.797441e-01  -1.272771e-01  -2.401658e+00   2.812243e-01   7.606299e-02   1.024007e-03   5.910690e-01  -4.553196e-02  
 1.091440e+09   7.797178e-01  -1.274483e-01  -2.401593e+00   2.816072e-01   7.606433e-02   1.034466e-03   5.910639e-01  -4.558325e-02  
 1.093956e+09   7.796597e-01  -1.278362e-01  -2.401444e+00   2.824754e-01   7.606503e-02   1.029493e-03   5.910531e-01  -4.574233e-02  
 1.096478e+09   7.796119e-01  -1.281534e-01  -2.401327e+00   2.831523e-01   7.606596e-02   1.030668e-03   5.910453e-01  -4.584574e-02  
 1.099006e+09   7.795854e-01  -1.283247e-01  -2.401261e+00   2.835369e-01   7.606733e-02   1.041223e-03   5.910400e-01  -4.589786e-02  
 1.101539e+09   7.795374e-01  -1.286420e-01  -2.401143e+00   2.842150e-01   7.606827e-02   1.042462e-03   5.910322e-01  -4.600183e-02  
 1.104079e+09   7.794893e-01  -1.289592e-01  -2.401025e+00   2.848936e-01   7.606923e-02   1.043733e-03   5.910243e-01  -4.610607e-02  
 1.106624e+09   7.794520e-01  -1.292013e-01  -2.400925e+00   2.854718e-01   7.607038e-02   1.048267e-03   5.910159e-01  -4.621496e-02  
 1.109175e+09   7.793931e-01  -1.295893e-01  -2.400773e+00   2.863433e-01   7.607111e-02   1.043485e-03   5.910048e-01  -4.637570e-02  
 1.111732e+09   7.793552e-01  -1.298358e-01  -2.400687e+00   2.868319e-01   7.607232e-02   1.050970e-03   5.909999e-01  -4.642484e-02  
 1.114295e+09   7.793176e-01  -1.300780e-01  -2.400587e+00   2.874118e-01   7.607349e-02   1.055600e-03   5.909913e-01  -4.653456e-02  
 1.116863e+09   7.792689e-01  -1.303953e-01  -2.400467e+00   2.880933e-01   7.607447e-02   1.057032e-03   5.909832e-01  -4.664020e-02  
 1.119438e+09   7.792201e-01  -1.307126e-01  -2.400346e+00   2.887753e-01   7.607546e-02   1.058497e-03   5.909751e-01  -4.674613e-02  
 1.122018e+09   7.791711e-01  -1.310299e-01  -2.400225e+00   2.894579e-01   7.607646e-02   1.059994e-03   5.909669e-01  -4.685233e-02  
 1.124605e+09   7.791332e-01  -1.312722e-01  -2.400124e+00   2.900402e-01   7.607766e-02   1.064754e-03   5.909582e-01  -4.696318e-02  
 1.127197e+09   7.790840e-01  -1.315896e-01  -2.400002e+00   2.907239e-01   7.607867e-02   1.066316e-03   5.909499e-01  -4.706994e-02  
 1.129796e+09   7.790347e-01  -1.319069e-01  -2.399880e+00   2.914083e-01   7.607968e-02   1.067911e-03   5.909416e-01  -4.717700e-02  
 1.132400e+09   7.789853e-01  -1.322243e-01  -2.399758e+00   2.920932e-01   7.608070e-02   1.069539e-03   5.909332e-01  -4.728433e-02  
 1.135011e+09   7.789470e-01  -1.324666e-01  -2.399655e+00   2.926778e-01   7.608193e-02   1.074430e-03   5.909244e-01  -4.739631e-02  
 1.137627e+09   7.788973e-01  -1.327840e-01  -2.399532e+00   2.933639e-01   7.608296e-02   1.076123e-03   5.909159e-01  -4.750422e-02  
 1.140250e+09   7.788475e-01  -1.331014e-01  -2.399408e+00   2.940506e-01   7.608401e-02   1.077850e-03   5.909074e-01  -4.761241e-02  
 1.142878e+09   7.787976e-01  -1.334189e-01  -2.399284e+00   2.947378e-01   7.608505e-02   1.079609e-03   5.908989e-01  -4.772089e-02  
 1.145513e+09   7.787475e-01  -1.337363e-01  -2.399160e+00   2.954256e-01   7.608611e-02   1.081402e-03   5.908903e-01  -4.782966e-02  
 1.148154e+09   7.787087e-01  -1.339787e-01  -2.399056e+00   2.960132e-01   7.608737e-02   1.086458e-03   5.908812e-01  -4.794307e-02  
 1.150800e+09   7.786585e-01  -1.342962e-01  -2.398931e+00   2.967022e-01   7.608844e-02   1.088317e-03   5.908725e-01  -4.805241e-02  
 1.153453e+09   7.786080e-01  -1.346137e-01  -2.398805e+00   2.973918e-01   7.608951e-02   1.090209e-03   5.908638e-01  -4.816204e-02  
 1.156112e+09   7.785575e-01  -1.349312e-01  -2.398680e+00   2.980820e-01   7.609059e-02   1.092135e-03   5.908551e-01  -4.827197e-02  
 1.158777e+09   7.785068e-01  -1.352487e-01  -2.398553e+00   2.987728e-01   7.609168e-02   1.094094e-03   5.908463e-01  -4.838218e-02  
 1.161449e+09   7.784450e-01  -1.356368e-01  -2.398392e+00   2.996555e-01   7.609253e-02   1.089969e-03   5.908342e-01  -4.854860e-02  
 1.164126e+09   7.784051e-01  -1.358837e-01  -2.398300e+00   3.001561e-01   7.609388e-02   1.098113e-03   5.908286e-01  -4.860347e-02  
 1.166810e+09   7.783546e-01  -1.361969e-01  -2.398158e+00   3.009392e-01   7.609494e-02   1.097286e-03   5.908159e-01  -4.877484e-02  
 1.169499e+09   7.783034e-01  -1.365144e-01  -2.398031e+00   3.016323e-01   7.609606e-02   1.099380e-03   5.908069e-01  -4.888622e-02  
 1.172195e+09   7.782632e-01  -1.367614e-01  -2.397937e+00   3.021348e-01   7.609743e-02   1.107625e-03   5.908011e-01  -4.894197e-02  
 1.174898e+09   7.782007e-01  -1.371495e-01  -2.397774e+00   3.030203e-01   7.609831e-02   1.103669e-03   5.907888e-01  -4.910986e-02  
 1.177606e+09   7.781491e-01  -1.374671e-01  -2.397645e+00   3.037152e-01   7.609944e-02   1.105865e-03   5.907797e-01  -4.922212e-02  
 1.180321e+09   7.781086e-01  -1.377141e-01  -2.397551e+00   3.042195e-01   7.610084e-02   1.114212e-03   5.907738e-01  -4.927876e-02  
 1.183042e+09   7.780568e-01  -1.380318e-01  -2.397421e+00   3.049156e-01   7.610199e-02   1.116475e-03   5.907646e-01  -4.939162e-02  
 1.185769e+09   7.779936e-01  -1.384199e-01  -2.397256e+00   3.058035e-01   7.610289e-02   1.112656e-03   5.907521e-01  -4.956069e-02  
 1.188502e+09   7.779416e-01  -1.387376e-01  -2.397125e+00   3.065008e-01   7.610406e-02   1.114988e-03   5.907428e-01  -4.967414e-02  
 1.191242e+09   7.779006e-01  -1.389847e-01  -2.397030e+00   3.070076e-01   7.610548e-02   1.123472e-03   5.907367e-01  -4.973197e-02  
 1.193988e+09   7.778483e-01  -1.393023e-01  -2.396898e+00   3.077061e-01   7.610666e-02   1.125873e-03   5.907273e-01  -4.984602e-02  
 1.196741e+09   7.777959e-01  -1.396200e-01  -2.396767e+00   3.084052e-01   7.610785e-02   1.128309e-03   5.907179e-01  -4.996036e-02  
 1.199499e+09   7.777319e-01  -1.400082e-01  -2.396599e+00   3.092960e-01   7.610879e-02   1.124661e-03   5.907051e-01  -5.013092e-02  
 1.202264e+09   7.776906e-01  -1.402554e-01  -2.396502e+00   3.098053e-01   7.611024e-02   1.133283e-03   5.906988e-01  -5.018996e-02  
 1.205036e+09   7.776264e-01  -1.406436e-01  -2.396333e+00   3.106973e-01   7.611119e-02   1.129705e-03   5.906859e-01  -5.036112e-02  
 1.207814e+09   7.775848e-01  -1.408908e-01  -2.396236e+00   3.112078e-01   7.611267e-02   1.138397e-03   5.906796e-01  -5.042076e-02  
 1.210598e+09   7.775317e-01  -1.412085e-01  -2.396102e+00   3.119100e-01   7.611389e-02   1.141006e-03   5.906699e-01  -5.053661e-02  
 1.213389e+09   7.774670e-01  -1.415967e-01  -2.395932e+00   3.128037e-01   7.611486e-02   1.137533e-03   5.906568e-01  -5.070868e-02  
 1.216186e+09   7.774252e-01  -1.418440e-01  -2.395833e+00   3.133162e-01   7.611636e-02   1.146329e-03   5.906504e-01  -5.076923e-02  
 1.218990e+09   7.773717e-01  -1.421618e-01  -2.395699e+00   3.140202e-01   7.611760e-02   1.149043e-03   5.906406e-01  -5.088600e-02  
 1.221800e+09   7.773181e-01  -1.424795e-01  -2.395563e+00   3.147248e-01   7.611886e-02   1.151792e-03   5.906307e-01  -5.100307e-02  
 1.224616e+09   7.772643e-01  -1.427973e-01  -2.395427e+00   3.154300e-01   7.612012e-02   1.154577e-03   5.906207e-01  -5.112045e-02  
 1.227439e+09   7.772104e-01  -1.431151e-01  -2.395291e+00   3.161359e-01   7.612139e-02   1.157396e-03   5.906108e-01  -5.123814e-02  
 1.230269e+09   7.771564e-01  -1.434329e-01  -2.395155e+00   3.168424e-01   7.612266e-02   1.160251e-03   5.906007e-01  -5.135613e-02  
 1.233105e+09   7.771023e-01  -1.437508e-01  -2.395018e+00   3.175495e-01   7.612395e-02   1.163142e-03   5.905906e-01  -5.147444e-02  
 1.235947e+09   7.770241e-01  -1.442138e-01  -2.394822e+00   3.185484e-01   7.612476e-02   1.156721e-03   5.905776e-01  -5.164459e-02  
 1.238797e+09   7.769814e-01  -1.444612e-01  -2.394720e+00   3.190659e-01   7.612633e-02   1.165800e-03   5.905708e-01  -5.170761e-02  
 1.241652e+09   7.769151e-01  -1.448495e-01  -2.394545e+00   3.199656e-01   7.612737e-02   1.162680e-03   5.905572e-01  -5.188274e-02  
 1.244515e+09   7.768722e-01  -1.450969e-01  -2.394443e+00   3.204844e-01   7.612895e-02   1.171831e-03   5.905503e-01  -5.194639e-02  
 1.247384e+09   7.768174e-01  -1.454148e-01  -2.394304e+00   3.211947e-01   7.613027e-02   1.174900e-03   5.905400e-01  -5.206624e-02  
 1.250259e+09   7.767624e-01  -1.457327e-01  -2.394165e+00   3.219055e-01   7.613160e-02   1.178005e-03   5.905296e-01  -5.218641e-02  
 1.253141e+09   7.767073e-01  -1.460506e-01  -2.394025e+00   3.226170e-01   7.613294e-02   1.181146e-03   5.905191e-01  -5.230689e-02  
 1.256030e+09   7.766397e-01  -1.464433e-01  -2.393862e+00   3.234293e-01   7.613407e-02   1.181093e-03   5.905092e-01  -5.242333e-02  
 1.258925e+09   7.765844e-01  -1.467612e-01  -2.393721e+00   3.241420e-01   7.613543e-02   1.184306e-03   5.904986e-01  -5.254444e-02  
 1.261828e+09   7.765289e-01  -1.470791e-01  -2.393580e+00   3.248554e-01   7.613679e-02   1.187556e-03   5.904880e-01  -5.266586e-02  
 1.264736e+09   7.764732e-01  -1.473970e-01  -2.393438e+00   3.255694e-01   7.613817e-02   1.190841e-03   5.904773e-01  -5.278760e-02  
 1.267652e+09   7.764055e-01  -1.477854e-01  -2.393258e+00   3.264745e-01   7.613928e-02   1.188045e-03   5.904631e-01  -5.296554e-02  
 1.270574e+09   7.763490e-01  -1.481077e-01  -2.393131e+00   3.270995e-01   7.614072e-02   1.194292e-03   5.904564e-01  -5.302768e-02  
 1.273503e+09   7.762930e-01  -1.484256e-01  -2.392988e+00   3.278153e-01   7.614211e-02   1.197687e-03   5.904456e-01  -5.315037e-02  
 1.276439e+09   7.762368e-01  -1.487436e-01  -2.392844e+00   3.285319e-01   7.614352e-02   1.201119e-03   5.904347e-01  -5.327338e-02  
 1.279381e+09   7.761805e-01  -1.490616e-01  -2.392700e+00   3.292490e-01   7.614493e-02   1.204587e-03   5.904238e-01  -5.339671e-02  
 1.282331e+09   7.760992e-01  -1.495246e-01  -2.392495e+00   3.302574e-01   7.614586e-02   1.198745e-03   5.904098e-01  -5.357189e-02  
 1.285287e+09   7.760548e-01  -1.497723e-01  -2.392389e+00   3.307854e-01   7.614756e-02   1.208404e-03   5.904023e-01  -5.363997e-02  
 1.288250e+09   7.759980e-01  -1.500903e-01  -2.392243e+00   3.315045e-01   7.614900e-02   1.211983e-03   5.903912e-01  -5.376427e-02  
 1.291219e+09   7.759284e-01  -1.504830e-01  -2.392075e+00   3.323243e-01   7.615023e-02   1.212370e-03   5.903806e-01  -5.388453e-02  
 1.294196e+09   7.758714e-01  -1.508010e-01  -2.391929e+00   3.330446e-01   7.615168e-02   1.216022e-03   5.903694e-01  -5.400947e-02  
 1.297179e+09   7.758142e-01  -1.511191e-01  -2.391782e+00   3.337656e-01   7.615315e-02   1.219712e-03   5.903581e-01  -5.413473e-02  
 1.300170e+09   7.757441e-01  -1.515118e-01  -2.391612e+00   3.345873e-01   7.615440e-02   1.220210e-03   5.903473e-01  -5.425596e-02  
 1.303167e+09   7.756866e-01  -1.518299e-01  -2.391464e+00   3.353096e-01   7.615588e-02   1.223975e-03   5.903360e-01  -5.438187e-02  
 1.306171e+09   7.756167e-01  -1.522182e-01  -2.391278e+00   3.362228e-01   7.615709e-02   1.221659e-03   5.903209e-01  -5.456398e-02  
 1.309182e+09   7.755584e-01  -1.525406e-01  -2.391145e+00   3.368562e-01   7.615864e-02   1.228387e-03   5.903136e-01  -5.463032e-02  
 1.312200e+09   7.755005e-01  -1.528587e-01  -2.390996e+00   3.375804e-01   7.616015e-02   1.232263e-03   5.903020e-01  -5.475721e-02  
 1.315225e+09   7.754301e-01  -1.532471e-01  -2.390807e+00   3.384955e-01   7.616139e-02   1.230060e-03   5.902868e-01  -5.494030e-02  
 1.318257e+09   7.753714e-01  -1.535695e-01  -2.390674e+00   3.391308e-01   7.616297e-02   1.236901e-03   5.902793e-01  -5.500762e-02  
 1.321296e+09   7.753006e-01  -1.539579e-01  -2.390484e+00   3.400471e-01   7.616422e-02   1.234773e-03   5.902639e-01  -5.519137e-02  
 1.324342e+09   7.752290e-01  -1.543506e-01  -2.390310e+00   3.408739e-01   7.616554e-02   1.235572e-03   5.902527e-01  -5.531523e-02  
 1.327394e+09   7.751830e-01  -1.545985e-01  -2.390198e+00   3.414113e-01   7.616737e-02   1.245755e-03   5.902445e-01  -5.538789e-02  
 1.330454e+09   7.751242e-01  -1.549167e-01  -2.390046e+00   3.421395e-01   7.616894e-02   1.249858e-03   5.902326e-01  -5.551676e-02  
 1.333521e+09   7.750396e-01  -1.553796e-01  -2.389831e+00   3.431582e-01   7.617000e-02   1.244654e-03   5.902175e-01  -5.569748e-02  
 1.336596e+09   7.749932e-01  -1.556275e-01  -2.389718e+00   3.436976e-01   7.617186e-02   1.254951e-03   5.902092e-01  -5.577115e-02  
 1.339677e+09   7.749208e-01  -1.560202e-01  -2.389541e+00   3.445276e-01   7.617322e-02   1.255941e-03   5.901977e-01  -5.589667e-02  
 1.342765e+09   7.748615e-01  -1.563384e-01  -2.389387e+00   3.452584e-01   7.617482e-02   1.260197e-03   5.901855e-01  -5.602687e-02  
 1.345860e+09   7.747888e-01  -1.567311e-01  -2.389210e+00   3.460897e-01   7.617620e-02   1.261263e-03   5.901739e-01  -5.615306e-02  
 1.348963e+09   7.747291e-01  -1.570493e-01  -2.389055e+00   3.468218e-01   7.617781e-02   1.265596e-03   5.901616e-01  -5.628393e-02  
 1.352073e+09   7.746561e-01  -1.574420e-01  -2.388876e+00   3.476544e-01   7.617921e-02   1.266740e-03   5.901499e-01  -5.641079e-02  
 1.355189e+09   7.745834e-01  -1.578304e-01  -2.388681e+00   3.485777e-01   7.618056e-02   1.265032e-03   5.901338e-01  -5.659820e-02  
 1.358313e+09   7.745227e-01  -1.581530e-01  -2.388541e+00   3.492217e-01   7.618226e-02   1.272371e-03   5.901256e-01  -5.666988e-02  
 1.361445e+09   7.744625e-01  -1.584712e-01  -2.388384e+00   3.499565e-01   7.618392e-02   1.276858e-03   5.901131e-01  -5.680210e-02  
 1.364583e+09   7.743759e-01  -1.589340e-01  -2.388163e+00   3.509815e-01   7.618506e-02   1.272039e-03   5.900973e-01  -5.698618e-02  
 1.367729e+09   7.743148e-01  -1.592566e-01  -2.388022e+00   3.516275e-01   7.618679e-02   1.279495e-03   5.900890e-01  -5.705888e-02  
 1.370882e+09   7.742541e-01  -1.595749e-01  -2.387864e+00   3.523643e-01   7.618847e-02   1.284099e-03   5.900763e-01  -5.719212e-02  
 1.374042e+09   7.741933e-01  -1.598931e-01  -2.387705e+00   3.531018e-01   7.619017e-02   1.288743e-03   5.900636e-01  -5.732571e-02  
 1.377209e+09   7.741052e-01  -1.603603e-01  -2.387498e+00   3.540392e-01   7.619140e-02   1.286970e-03   5.900519e-01  -5.745095e-02  
 1.380384e+09   7.740441e-01  -1.606785e-01  -2.387339e+00   3.547781e-01   7.619311e-02   1.291692e-03   5.900390e-01  -5.758522e-02  
 1.383566e+09   7.739828e-01  -1.609968e-01  -2.387178e+00   3.555176e-01   7.619484e-02   1.296454e-03   5.900261e-01  -5.771984e-02  
 1.386756e+09   7.738941e-01  -1.614639e-01  -2.386969e+00   3.564569e-01   7.619610e-02   1.294799e-03   5.900142e-01  -5.784611e-02  
 1.389953e+09   7.738325e-01  -1.617822e-01  -2.386808e+00   3.571977e-01   7.619784e-02   1.299640e-03   5.900011e-01  -5.798142e-02  
 1.393157e+09   7.737708e-01  -1.621005e-01  -2.386647e+00   3.579393e-01   7.619960e-02   1.304520e-03   5.899880e-01  -5.811707e-02  
 1.396368e+09   7.737090e-01  -1.624189e-01  -2.386485e+00   3.586815e-01   7.620136e-02   1.309440e-03   5.899748e-01  -5.825308e-02  
 1.399587e+09   7.736194e-01  -1.628859e-01  -2.386273e+00   3.596234e-01   7.620266e-02   1.307944e-03   5.899626e-01  -5.838073e-02  
 1.402814e+09   7.735573e-01  -1.632042e-01  -2.386110e+00   3.603670e-01   7.620444e-02   1.312943e-03   5.899493e-01  -5.851743e-02  
 1.406048e+09   7.734949e-01  -1.635226e-01  -2.385947e+00   3.611113e-01   7.620624e-02   1.317983e-03   5.899359e-01  -5.865448e-02  
 1.409289e+09   7.734048e-01  -1.639896e-01  -2.385733e+00   3.620552e-01   7.620756e-02   1.316607e-03   5.899236e-01  -5.878319e-02  
 1.412538e+09   7.733421e-01  -1.643080e-01  -2.385569e+00   3.628008e-01   7.620938e-02   1.321727e-03   5.899101e-01  -5.892094e-02  
 1.415794e+09   7.732515e-01  -1.647750e-01  -2.385354e+00   3.637460e-01   7.621072e-02   1.320432e-03   5.898976e-01  -5.905035e-02  
 1.419058e+09   7.731885e-01  -1.650933e-01  -2.385189e+00   3.644930e-01   7.621255e-02   1.325631e-03   5.898839e-01  -5.918881e-02  
 1.422329e+09   7.731254e-01  -1.654117e-01  -2.385022e+00   3.652407e-01   7.621440e-02   1.330872e-03   5.898702e-01  -5.932761e-02  
 1.425608e+09   7.730341e-01  -1.658787e-01  -2.384806e+00   3.661878e-01   7.621577e-02   1.329698e-03   5.898576e-01  -5.945809e-02  
 1.428894e+09   7.729707e-01  -1.661970e-01  -2.384639e+00   3.669369e-01   7.621764e-02   1.335019e-03   5.898437e-01  -5.959760e-02  
 1.432188e+09   7.729071e-01  -1.665154e-01  -2.384471e+00   3.676867e-01   7.621952e-02   1.340381e-03   5.898297e-01  -5.973748e-02  
 1.435489e+09   7.728152e-01  -1.669823e-01  -2.384253e+00   3.686358e-01   7.622092e-02   1.339329e-03   5.898169e-01  -5.986902e-02  
 1.438799e+09   7.727513e-01  -1.673007e-01  -2.384084e+00   3.693870e-01   7.622282e-02   1.344772e-03   5.898028e-01  -6.000960e-02  
 1.442115e+09   7.726317e-01  -1.679074e-01  -2.383779e+00   3.707156e-01   7.622362e-02   1.331566e-03   5.897819e-01  -6.025351e-02  
 1.445440e+09   7.725947e-01  -1.680860e-01  -2.383694e+00   3.710899e-01   7.622616e-02   1.349327e-03   5.897756e-01  -6.028316e-02  
 1.448772e+09   7.725303e-01  -1.684045e-01  -2.383524e+00   3.718432e-01   7.622809e-02   1.354893e-03   5.897613e-01  -6.042482e-02  
 1.452112e+09   7.724373e-01  -1.688713e-01  -2.383302e+00   3.727956e-01   7.622954e-02   1.354046e-03   5.897482e-01  -6.055816e-02  
 1.455459e+09   7.723726e-01  -1.691897e-01  -2.383131e+00   3.735503e-01   7.623149e-02   1.359694e-03   5.897337e-01  -6.070054e-02  
 1.458814e+09   7.722791e-01  -1.696566e-01  -2.382908e+00   3.745040e-01   7.623296e-02   1.358930e-03   5.897204e-01  -6.083460e-02  
 1.462177e+09   7.722141e-01  -1.699750e-01  -2.382736e+00   3.752601e-01   7.623494e-02   1.364661e-03   5.897058e-01  -6.097771e-02  
 1.465548e+09   7.721201e-01  -1.704418e-01  -2.382511e+00   3.762151e-01   7.623642e-02   1.363979e-03   5.896924e-01  -6.111250e-02  
 1.468926e+09   7.720548e-01  -1.707602e-01  -2.382338e+00   3.769726e-01   7.623843e-02   1.369793e-03   5.896777e-01  -6.125633e-02  
 1.472313e+09   7.719893e-01  -1.710787e-01  -2.382164e+00   3.777308e-01   7.624044e-02   1.375648e-03   5.896629e-01  -6.140053e-02  
 1.475707e+09   7.718947e-01  -1.715455e-01  -2.381937e+00   3.786879e-01   7.624195e-02   1.375092e-03   5.896492e-01  -6.153641e-02  
 1.479108e+09   7.718289e-01  -1.718639e-01  -2.381762e+00   3.794475e-01   7.624399e-02   1.381031e-03   5.896342e-01  -6.168135e-02  
 1.482518e+09   7.717338e-01  -1.723306e-01  -2.381535e+00   3.804059e-01   7.624553e-02   1.380558e-03   5.896205e-01  -6.181796e-02  
 1.485936e+09   7.716677e-01  -1.726491e-01  -2.381358e+00   3.811669e-01   7.624759e-02   1.386581e-03   5.896054e-01  -6.196363e-02  
 1.489361e+09   7.715441e-01  -1.732553e-01  -2.381041e+00   3.825040e-01   7.624851e-02   1.373957e-03   5.895832e-01  -6.221261e-02  
 1.492794e+09   7.715057e-01  -1.734343e-01  -2.380952e+00   3.828891e-01   7.625123e-02   1.392299e-03   5.895762e-01  -6.224740e-02  
 1.496236e+09   7.714097e-01  -1.739009e-01  -2.380722e+00   3.838502e-01   7.625281e-02   1.391996e-03   5.895621e-01  -6.238549e-02  
 1.499685e+09   7.713429e-01  -1.742194e-01  -2.380543e+00   3.846141e-01   7.625491e-02   1.398187e-03   5.895467e-01  -6.253264e-02  
 1.503142e+09   7.712464e-01  -1.746860e-01  -2.380312e+00   3.855765e-01   7.625651e-02   1.397968e-03   5.895325e-01  -6.267148e-02  
 1.506607e+09   7.711793e-01  -1.750045e-01  -2.380132e+00   3.863418e-01   7.625864e-02   1.404243e-03   5.895169e-01  -6.281938e-02  
 1.510080e+09   7.710824e-01  -1.754711e-01  -2.379899e+00   3.873056e-01   7.626026e-02   1.404110e-03   5.895025e-01  -6.295897e-02  
 1.513561e+09   7.710149e-01  -1.757896e-01  -2.379718e+00   3.880724e-01   7.626241e-02   1.410471e-03   5.894868e-01  -6.310761e-02  
 1.517050e+09   7.709175e-01  -1.762562e-01  -2.379484e+00   3.890376e-01   7.626406e-02   1.410422e-03   5.894723e-01  -6.324795e-02  
 1.520548e+09   7.708497e-01  -1.765747e-01  -2.379302e+00   3.898058e-01   7.626624e-02   1.416869e-03   5.894564e-01  -6.339734e-02  
 1.524053e+09   7.707519e-01  -1.770412e-01  -2.379066e+00   3.907723e-01   7.626790e-02   1.416906e-03   5.894418e-01  -6.353844e-02  
 1.527566e+09   7.706538e-01  -1.775077e-01  -2.378830e+00   3.917395e-01   7.626958e-02   1.416987e-03   5.894270e-01  -6.367991e-02  
 1.531087e+09   7.705855e-01  -1.778262e-01  -2.378646e+00   3.925099e-01   7.627179e-02   1.423563e-03   5.894109e-01  -6.383044e-02  
 1.534617e+09   7.704869e-01  -1.782926e-01  -2.378408e+00   3.934784e-01   7.627349e-02   1.423730e-03   5.893960e-01  -6.397267e-02  
 1.538155e+09   7.704182e-01  -1.786111e-01  -2.378223e+00   3.942502e-01   7.627573e-02   1.430391e-03   5.893798e-01  -6.412396e-02  
 1.541700e+09   7.703192e-01  -1.790776e-01  -2.377984e+00   3.952202e-01   7.627745e-02   1.430645e-03   5.893647e-01  -6.426695e-02  
 1.545254e+09   7.702502e-01  -1.793961e-01  -2.377798e+00   3.959935e-01   7.627971e-02   1.437393e-03   5.893483e-01  -6.441900e-02  
 1.548817e+09   7.701507e-01  -1.798625e-01  -2.377557e+00   3.969648e-01   7.628146e-02   1.437734e-03   5.893331e-01  -6.456276e-02  
 1.552387e+09   7.700510e-01  -1.803288e-01  -2.377316e+00   3.979368e-01   7.628321e-02   1.438119e-03   5.893178e-01  -6.470691e-02  
 1.555966e+09   7.699814e-01  -1.806473e-01  -2.377128e+00   3.987123e-01   7.628552e-02   1.444998e-03   5.893011e-01  -6.486011e-02  
 1.559553e+09   7.698812e-01  -1.811136e-01  -2.376886e+00   3.996857e-01   7.628729e-02   1.445470e-03   5.892857e-01  -6.500502e-02  
 1.563148e+09   7.698114e-01  -1.814321e-01  -2.376696e+00   4.004626e-01   7.628962e-02   1.452437e-03   5.892689e-01  -6.515900e-02  
 1.566751e+09   7.697107e-01  -1.818984e-01  -2.376452e+00   4.014374e-01   7.629142e-02   1.452997e-03   5.892532e-01  -6.530468e-02  
 1.570363e+09   7.696097e-01  -1.823647e-01  -2.376207e+00   4.024129e-01   7.629324e-02   1.453601e-03   5.892376e-01  -6.545076e-02  
 1.573983e+09   7.695393e-01  -1.826832e-01  -2.376017e+00   4.031921e-01   7.629560e-02   1.460700e-03   5.892205e-01  -6.560590e-02  
 1.577611e+09   7.694379e-01  -1.831494e-01  -2.375770e+00   4.041689e-01   7.629744e-02   1.461392e-03   5.892046e-01  -6.575275e-02  
 1.581248e+09   7.693672e-01  -1.834679e-01  -2.375578e+00   4.049496e-01   7.629984e-02   1.468579e-03   5.891874e-01  -6.590867e-02  
 1.584893e+09   7.692653e-01  -1.839341e-01  -2.375330e+00   4.059279e-01   7.630170e-02   1.469361e-03   5.891714e-01  -6.605631e-02  
 1.588547e+09   7.691631e-01  -1.844003e-01  -2.375082e+00   4.069068e-01   7.630357e-02   1.470187e-03   5.891553e-01  -6.620434e-02  
 1.592209e+09   7.690918e-01  -1.847188e-01  -2.374888e+00   4.076897e-01   7.630600e-02   1.477507e-03   5.891378e-01  -6.636143e-02  
 1.595879e+09   7.689892e-01  -1.851849e-01  -2.374638e+00   4.086701e-01   7.630790e-02   1.478422e-03   5.891215e-01  -6.651025e-02  
 1.599558e+09   7.688863e-01  -1.856510e-01  -2.374387e+00   4.096511e-01   7.630981e-02   1.479383e-03   5.891052e-01  -6.665946e-02  
 1.603245e+09   7.688145e-01  -1.859695e-01  -2.374191e+00   4.104363e-01   7.631229e-02   1.486837e-03   5.890874e-01  -6.681774e-02  
 1.606941e+09   7.687111e-01  -1.864355e-01  -2.373939e+00   4.114187e-01   7.631422e-02   1.487887e-03   5.890709e-01  -6.696774e-02  
 1.610646e+09   7.686075e-01  -1.869015e-01  -2.373686e+00   4.124019e-01   7.631617e-02   1.488982e-03   5.890543e-01  -6.711814e-02  
 1.614359e+09   7.685352e-01  -1.872200e-01  -2.373489e+00   4.131893e-01   7.631868e-02   1.496572e-03   5.890363e-01  -6.727761e-02  
 1.618080e+09   7.684310e-01  -1.876860e-01  -2.373234e+00   4.141739e-01   7.632066e-02   1.497757e-03   5.890196e-01  -6.742881e-02  
 1.621810e+09   7.683267e-01  -1.881519e-01  -2.372979e+00   4.151592e-01   7.632264e-02   1.498988e-03   5.890027e-01  -6.758041e-02  
 1.625549e+09   7.682538e-01  -1.884704e-01  -2.372779e+00   4.159488e-01   7.632520e-02   1.506714e-03   5.889844e-01  -6.774108e-02  
 1.629296e+09   7.681489e-01  -1.889363e-01  -2.372523e+00   4.169356e-01   7.632721e-02   1.508035e-03   5.889674e-01  -6.789348e-02  
 1.633052e+09   7.680438e-01  -1.894022e-01  -2.372265e+00   4.179230e-01   7.632923e-02   1.509403e-03   5.889503e-01  -6.804629e-02  
 1.636817e+09   7.679078e-01  -1.900067e-01  -2.371911e+00   4.192856e-01   7.633057e-02   1.498579e-03   5.889241e-01  -6.831100e-02  
 1.640590e+09   7.678648e-01  -1.901865e-01  -2.371805e+00   4.197038e-01   7.633388e-02   1.518724e-03   5.889144e-01  -6.836177e-02  
 1.644372e+09   7.677590e-01  -1.906523e-01  -2.371545e+00   4.206934e-01   7.633594e-02   1.520228e-03   5.888971e-01  -6.851579e-02  
 1.648162e+09   7.676528e-01  -1.911180e-01  -2.371285e+00   4.216836e-01   7.633802e-02   1.521779e-03   5.888796e-01  -6.867022e-02  