!2-port S-parameter file
!Title: ** sch_path: /home/andylithia/openmpw/project-yatsuhashi-chip1/xschem/dumb_amp_r1_2.sch
!Generated by ngspice at Fri Aug  5 22:00:46  2022
# Hz S RI R 50
!freq            ReS11           ImS11           ReS21           ImS21           ReS12           ImS12           ReS22           ImS22         
 1.000000e+09   8.616270e-01  -8.610597e-02  -1.417147e+00  -2.864175e-01   5.870017e-02   2.009981e-02   4.085123e-01   1.322047e-01  
 1.002305e+09   8.615823e-01  -8.615536e-02  -1.417526e+00  -2.855208e-01   5.871729e-02   2.008195e-02   4.086789e-01   1.318488e-01  
 1.004616e+09   8.615378e-01  -8.620514e-02  -1.417903e+00  -2.846247e-01   5.873436e-02   2.006415e-02   4.088447e-01   1.314933e-01  
 1.006932e+09   8.614934e-01  -8.625528e-02  -1.418279e+00  -2.837293e-01   5.875137e-02   2.004643e-02   4.090098e-01   1.311381e-01  
 1.009253e+09   8.614491e-01  -8.630580e-02  -1.418653e+00  -2.828346e-01   5.876831e-02   2.002878e-02   4.091743e-01   1.307832e-01  
 1.011579e+09   8.614049e-01  -8.635670e-02  -1.419026e+00  -2.819406e-01   5.878520e-02   2.001121e-02   4.093381e-01   1.304287e-01  
 1.013911e+09   8.613608e-01  -8.640797e-02  -1.419397e+00  -2.810473e-01   5.880203e-02   1.999370e-02   4.095012e-01   1.300745e-01  
 1.016249e+09   8.613168e-01  -8.645963e-02  -1.419766e+00  -2.801546e-01   5.881879e-02   1.997627e-02   4.096636e-01   1.297207e-01  
 1.018591e+09   8.612730e-01  -8.651166e-02  -1.420134e+00  -2.792626e-01   5.883550e-02   1.995890e-02   4.098253e-01   1.293672e-01  
 1.020939e+09   8.612292e-01  -8.656406e-02  -1.420500e+00  -2.783712e-01   5.885216e-02   1.994161e-02   4.099864e-01   1.290140e-01  
 1.023293e+09   8.611856e-01  -8.661685e-02  -1.420865e+00  -2.774806e-01   5.886875e-02   1.992440e-02   4.101468e-01   1.286611e-01  
 1.025652e+09   8.611421e-01  -8.667002e-02  -1.421228e+00  -2.765906e-01   5.888528e-02   1.990725e-02   4.103065e-01   1.283086e-01  
 1.028016e+09   8.610987e-01  -8.672357e-02  -1.421589e+00  -2.757013e-01   5.890176e-02   1.989018e-02   4.104656e-01   1.279565e-01  
 1.030386e+09   8.610554e-01  -8.677750e-02  -1.421949e+00  -2.748126e-01   5.891818e-02   1.987318e-02   4.106240e-01   1.276046e-01  
 1.032761e+09   8.610122e-01  -8.683182e-02  -1.422308e+00  -2.739246e-01   5.893454e-02   1.985625e-02   4.107817e-01   1.272531e-01  
 1.035142e+09   8.609691e-01  -8.688652e-02  -1.422664e+00  -2.730374e-01   5.895084e-02   1.983939e-02   4.109388e-01   1.269020e-01  
 1.037528e+09   8.609262e-01  -8.694160e-02  -1.423019e+00  -2.721507e-01   5.896709e-02   1.982261e-02   4.110952e-01   1.265512e-01  
 1.039920e+09   8.608833e-01  -8.699707e-02  -1.423373e+00  -2.712648e-01   5.898328e-02   1.980590e-02   4.112510e-01   1.262007e-01  
 1.042317e+09   8.608405e-01  -8.705292e-02  -1.423725e+00  -2.703795e-01   5.899942e-02   1.978927e-02   4.114061e-01   1.258506e-01  
 1.044720e+09   8.607979e-01  -8.710916e-02  -1.424076e+00  -2.694949e-01   5.901549e-02   1.977270e-02   4.115606e-01   1.255008e-01  
 1.047129e+09   8.607554e-01  -8.716578e-02  -1.424425e+00  -2.686110e-01   5.903152e-02   1.975621e-02   4.117144e-01   1.251513e-01  
 1.049542e+09   8.607129e-01  -8.722280e-02  -1.424772e+00  -2.677278e-01   5.904748e-02   1.973980e-02   4.118676e-01   1.248022e-01  
 1.051962e+09   8.606706e-01  -8.728020e-02  -1.425118e+00  -2.668452e-01   5.906339e-02   1.972345e-02   4.120201e-01   1.244534e-01  
 1.054387e+09   8.606283e-01  -8.733799e-02  -1.425462e+00  -2.659633e-01   5.907925e-02   1.970719e-02   4.121720e-01   1.241050e-01  
 1.056818e+09   8.605862e-01  -8.739617e-02  -1.425805e+00  -2.650821e-01   5.909505e-02   1.969099e-02   4.123232e-01   1.237569e-01  
 1.059254e+09   8.605442e-01  -8.745474e-02  -1.426147e+00  -2.642016e-01   5.911080e-02   1.967487e-02   4.124738e-01   1.234092e-01  
 1.061696e+09   8.605022e-01  -8.751371e-02  -1.426487e+00  -2.633217e-01   5.912649e-02   1.965882e-02   4.126238e-01   1.230617e-01  
 1.064143e+09   8.604604e-01  -8.757306e-02  -1.426825e+00  -2.624425e-01   5.914213e-02   1.964285e-02   4.127731e-01   1.227147e-01  
 1.066596e+09   8.604187e-01  -8.763281e-02  -1.427162e+00  -2.615640e-01   5.915771e-02   1.962695e-02   4.129218e-01   1.223679e-01  
 1.069055e+09   8.603771e-01  -8.769295e-02  -1.427497e+00  -2.606862e-01   5.917324e-02   1.961112e-02   4.130699e-01   1.220215e-01  
 1.071519e+09   8.603355e-01  -8.775349e-02  -1.427831e+00  -2.598090e-01   5.918872e-02   1.959537e-02   4.132174e-01   1.216755e-01  
 1.073989e+09   8.602941e-01  -8.781442e-02  -1.428163e+00  -2.589325e-01   5.920414e-02   1.957969e-02   4.133642e-01   1.213298e-01  
 1.076465e+09   8.602528e-01  -8.787575e-02  -1.428494e+00  -2.580567e-01   5.921951e-02   1.956409e-02   4.135104e-01   1.209844e-01  
 1.078947e+09   8.602115e-01  -8.793747e-02  -1.428824e+00  -2.571815e-01   5.923483e-02   1.954856e-02   4.136560e-01   1.206394e-01  
 1.081434e+09   8.601704e-01  -8.799959e-02  -1.429151e+00  -2.563070e-01   5.925009e-02   1.953311e-02   4.138010e-01   1.202947e-01  
 1.083927e+09   8.601293e-01  -8.806211e-02  -1.429478e+00  -2.554332e-01   5.926530e-02   1.951773e-02   4.139453e-01   1.199503e-01  
 1.086426e+09   8.600884e-01  -8.812502e-02  -1.429803e+00  -2.545601e-01   5.928046e-02   1.950243e-02   4.140891e-01   1.196063e-01  
 1.088930e+09   8.600475e-01  -8.818834e-02  -1.430127e+00  -2.536877e-01   5.929557e-02   1.948720e-02   4.142322e-01   1.192627e-01  
 1.091440e+09   8.600067e-01  -8.825206e-02  -1.430449e+00  -2.528159e-01   5.931063e-02   1.947204e-02   4.143747e-01   1.189193e-01  
 1.093956e+09   8.599661e-01  -8.831617e-02  -1.430769e+00  -2.519448e-01   5.932563e-02   1.945696e-02   4.145166e-01   1.185764e-01  
 1.096478e+09   8.599255e-01  -8.838069e-02  -1.431089e+00  -2.510743e-01   5.934059e-02   1.944196e-02   4.146580e-01   1.182337e-01  
 1.099006e+09   8.598850e-01  -8.844561e-02  -1.431406e+00  -2.502045e-01   5.935549e-02   1.942703e-02   4.147987e-01   1.178914e-01  
 1.101539e+09   8.598446e-01  -8.851094e-02  -1.431723e+00  -2.493354e-01   5.937034e-02   1.941218e-02   4.149388e-01   1.175494e-01  
 1.104079e+09   8.598043e-01  -8.857666e-02  -1.432038e+00  -2.484670e-01   5.938515e-02   1.939740e-02   4.150783e-01   1.172078e-01  
 1.106624e+09   8.597640e-01  -8.864280e-02  -1.432351e+00  -2.475992e-01   5.939990e-02   1.938270e-02   4.152172e-01   1.168665e-01  
 1.109175e+09   8.597239e-01  -8.870933e-02  -1.432663e+00  -2.467321e-01   5.941460e-02   1.936807e-02   4.153555e-01   1.165256e-01  
 1.111732e+09   8.596839e-01  -8.877628e-02  -1.432974e+00  -2.458657e-01   5.942925e-02   1.935352e-02   4.154933e-01   1.161850e-01  
 1.114295e+09   8.596439e-01  -8.884363e-02  -1.433283e+00  -2.449999e-01   5.944385e-02   1.933905e-02   4.156304e-01   1.158448e-01  
 1.116863e+09   8.596040e-01  -8.891138e-02  -1.433591e+00  -2.441348e-01   5.945841e-02   1.932465e-02   4.157670e-01   1.155048e-01  
 1.119438e+09   8.595642e-01  -8.897955e-02  -1.433897e+00  -2.432704e-01   5.947291e-02   1.931033e-02   4.159029e-01   1.151653e-01  
 1.122018e+09   8.595245e-01  -8.904812e-02  -1.434202e+00  -2.424067e-01   5.948737e-02   1.929608e-02   4.160383e-01   1.148260e-01  
 1.124605e+09   8.594849e-01  -8.911710e-02  -1.434506e+00  -2.415436e-01   5.950177e-02   1.928191e-02   4.161731e-01   1.144871e-01  
 1.127197e+09   8.594454e-01  -8.918649e-02  -1.434808e+00  -2.406811e-01   5.951613e-02   1.926781e-02   4.163073e-01   1.141486e-01  
 1.129796e+09   8.594059e-01  -8.925630e-02  -1.435109e+00  -2.398194e-01   5.953044e-02   1.925379e-02   4.164410e-01   1.138104e-01  
 1.132400e+09   8.593665e-01  -8.932651e-02  -1.435409e+00  -2.389582e-01   5.954470e-02   1.923985e-02   4.165741e-01   1.134725e-01  
 1.135011e+09   8.593273e-01  -8.939714e-02  -1.435707e+00  -2.380978e-01   5.955892e-02   1.922599e-02   4.167066e-01   1.131349e-01  
 1.137627e+09   8.592880e-01  -8.946818e-02  -1.436004e+00  -2.372380e-01   5.957308e-02   1.921220e-02   4.168385e-01   1.127977e-01  
 1.140250e+09   8.592489e-01  -8.953963e-02  -1.436299e+00  -2.363789e-01   5.958720e-02   1.919849e-02   4.169698e-01   1.124609e-01  
 1.142878e+09   8.592099e-01  -8.961150e-02  -1.436593e+00  -2.355204e-01   5.960128e-02   1.918485e-02   4.171006e-01   1.121244e-01  
 1.145513e+09   8.591709e-01  -8.968379e-02  -1.436886e+00  -2.346626e-01   5.961530e-02   1.917129e-02   4.172309e-01   1.117882e-01  
 1.148154e+09   8.591320e-01  -8.975649e-02  -1.437177e+00  -2.338055e-01   5.962928e-02   1.915781e-02   4.173605e-01   1.114524e-01  
 1.150800e+09   8.590932e-01  -8.982960e-02  -1.437467e+00  -2.329490e-01   5.964321e-02   1.914440e-02   4.174896e-01   1.111169e-01  
 1.153453e+09   8.590545e-01  -8.990314e-02  -1.437756e+00  -2.320932e-01   5.965710e-02   1.913108e-02   4.176182e-01   1.107817e-01  
 1.156112e+09   8.590158e-01  -8.997709e-02  -1.438043e+00  -2.312380e-01   5.967094e-02   1.911783e-02   4.177462e-01   1.104469e-01  
 1.158777e+09   8.589772e-01  -9.005146e-02  -1.438329e+00  -2.303835e-01   5.968474e-02   1.910465e-02   4.178736e-01   1.101124e-01  
 1.161449e+09   8.589387e-01  -9.012625e-02  -1.438614e+00  -2.295296e-01   5.969849e-02   1.909155e-02   4.180005e-01   1.097782e-01  
 1.164126e+09   8.589003e-01  -9.020146e-02  -1.438897e+00  -2.286764e-01   5.971219e-02   1.907854e-02   4.181268e-01   1.094444e-01  
 1.166810e+09   8.588619e-01  -9.027709e-02  -1.439179e+00  -2.278238e-01   5.972585e-02   1.906559e-02   4.182526e-01   1.091109e-01  
 1.169499e+09   8.588236e-01  -9.035314e-02  -1.439460e+00  -2.269719e-01   5.973947e-02   1.905273e-02   4.183778e-01   1.087778e-01  
 1.172195e+09   8.587854e-01  -9.042961e-02  -1.439739e+00  -2.261207e-01   5.975304e-02   1.903994e-02   4.185025e-01   1.084450e-01  
 1.174898e+09   8.587473e-01  -9.050651e-02  -1.440017e+00  -2.252700e-01   5.976656e-02   1.902723e-02   4.186266e-01   1.081126e-01  
 1.177606e+09   8.587092e-01  -9.058383e-02  -1.440294e+00  -2.244201e-01   5.978005e-02   1.901460e-02   4.187502e-01   1.077804e-01  
 1.180321e+09   8.586712e-01  -9.066158e-02  -1.440570e+00  -2.235708e-01   5.979349e-02   1.900205e-02   4.188733e-01   1.074486e-01  
 1.183042e+09   8.586333e-01  -9.073975e-02  -1.440844e+00  -2.227221e-01   5.980688e-02   1.898957e-02   4.189958e-01   1.071172e-01  
 1.185769e+09   8.585954e-01  -9.081834e-02  -1.441117e+00  -2.218741e-01   5.982023e-02   1.897717e-02   4.191178e-01   1.067861e-01  
 1.188502e+09   8.585576e-01  -9.089737e-02  -1.441389e+00  -2.210267e-01   5.983354e-02   1.896485e-02   4.192393e-01   1.064553e-01  
 1.191242e+09   8.585199e-01  -9.097682e-02  -1.441659e+00  -2.201800e-01   5.984680e-02   1.895261e-02   4.193602e-01   1.061248e-01  
 1.193988e+09   8.584822e-01  -9.105670e-02  -1.441928e+00  -2.193339e-01   5.986003e-02   1.894045e-02   4.194806e-01   1.057947e-01  
 1.196741e+09   8.584446e-01  -9.113700e-02  -1.442196e+00  -2.184884e-01   5.987321e-02   1.892836e-02   4.196005e-01   1.054650e-01  
 1.199499e+09   8.584071e-01  -9.121774e-02  -1.442462e+00  -2.176436e-01   5.988634e-02   1.891635e-02   4.197198e-01   1.051355e-01  
 1.202264e+09   8.583696e-01  -9.129891e-02  -1.442728e+00  -2.167994e-01   5.989944e-02   1.890442e-02   4.198387e-01   1.048064e-01  
 1.205036e+09   8.583322e-01  -9.138051e-02  -1.442992e+00  -2.159559e-01   5.991249e-02   1.889257e-02   4.199570e-01   1.044776e-01  
 1.207814e+09   8.582949e-01  -9.146254e-02  -1.443254e+00  -2.151130e-01   5.992550e-02   1.888080e-02   4.200747e-01   1.041492e-01  
 1.210598e+09   8.582576e-01  -9.154500e-02  -1.443516e+00  -2.142708e-01   5.993847e-02   1.886911e-02   4.201920e-01   1.038211e-01  
 1.213389e+09   8.582204e-01  -9.162789e-02  -1.443776e+00  -2.134291e-01   5.995140e-02   1.885749e-02   4.203087e-01   1.034933e-01  
 1.216186e+09   8.581833e-01  -9.171122e-02  -1.444035e+00  -2.125881e-01   5.996429e-02   1.884595e-02   4.204250e-01   1.031659e-01  
 1.218990e+09   8.581462e-01  -9.179498e-02  -1.444293e+00  -2.117478e-01   5.997714e-02   1.883450e-02   4.205407e-01   1.028388e-01  
 1.221800e+09   8.581092e-01  -9.187918e-02  -1.444550e+00  -2.109080e-01   5.998994e-02   1.882312e-02   4.206559e-01   1.025120e-01  
 1.224616e+09   8.580722e-01  -9.196382e-02  -1.444805e+00  -2.100689e-01   6.000271e-02   1.881182e-02   4.207706e-01   1.021855e-01  
 1.227439e+09   8.580353e-01  -9.204889e-02  -1.445059e+00  -2.092305e-01   6.001544e-02   1.880060e-02   4.208848e-01   1.018594e-01  
 1.230269e+09   8.579985e-01  -9.213440e-02  -1.445312e+00  -2.083926e-01   6.002812e-02   1.878945e-02   4.209985e-01   1.015336e-01  
 1.233105e+09   8.579617e-01  -9.222034e-02  -1.445564e+00  -2.075554e-01   6.004077e-02   1.877839e-02   4.211117e-01   1.012082e-01  
 1.235947e+09   8.579250e-01  -9.230673e-02  -1.445814e+00  -2.067188e-01   6.005338e-02   1.876741e-02   4.212244e-01   1.008830e-01  
 1.238797e+09   8.578883e-01  -9.239356e-02  -1.446063e+00  -2.058828e-01   6.006594e-02   1.875650e-02   4.213365e-01   1.005582e-01  
 1.241652e+09   8.578517e-01  -9.248082e-02  -1.446311e+00  -2.050475e-01   6.007847e-02   1.874568e-02   4.214482e-01   1.002338e-01  
 1.244515e+09   8.578151e-01  -9.256853e-02  -1.446558e+00  -2.042127e-01   6.009096e-02   1.873493e-02   4.215594e-01   9.990962e-02  
 1.247384e+09   8.577786e-01  -9.265668e-02  -1.446804e+00  -2.033786e-01   6.010341e-02   1.872426e-02   4.216701e-01   9.958581e-02  
 1.250259e+09   8.577421e-01  -9.274527e-02  -1.447048e+00  -2.025451e-01   6.011583e-02   1.871367e-02   4.217803e-01   9.926233e-02  
 1.253141e+09   8.577057e-01  -9.283430e-02  -1.447292e+00  -2.017122e-01   6.012820e-02   1.870317e-02   4.218900e-01   9.893917e-02  
 1.256030e+09   8.576694e-01  -9.292378e-02  -1.447534e+00  -2.008800e-01   6.014054e-02   1.869274e-02   4.219993e-01   9.861634e-02  
 1.258925e+09   8.576331e-01  -9.301370e-02  -1.447775e+00  -2.000483e-01   6.015283e-02   1.868239e-02   4.221080e-01   9.829383e-02  
 1.261828e+09   8.575969e-01  -9.310407e-02  -1.448014e+00  -1.992173e-01   6.016510e-02   1.867212e-02   4.222163e-01   9.797166e-02  
 1.264736e+09   8.575607e-01  -9.319488e-02  -1.448253e+00  -1.983868e-01   6.017732e-02   1.866193e-02   4.223240e-01   9.764980e-02  
 1.267652e+09   8.575245e-01  -9.328615e-02  -1.448490e+00  -1.975570e-01   6.018951e-02   1.865182e-02   4.224313e-01   9.732827e-02  
 1.270574e+09   8.574884e-01  -9.337785e-02  -1.448726e+00  -1.967278e-01   6.020165e-02   1.864179e-02   4.225381e-01   9.700707e-02  
 1.273503e+09   8.574524e-01  -9.347001e-02  -1.448961e+00  -1.958992e-01   6.021377e-02   1.863184e-02   4.226445e-01   9.668619e-02  
 1.276439e+09   8.574164e-01  -9.356262e-02  -1.449195e+00  -1.950712e-01   6.022584e-02   1.862197e-02   4.227503e-01   9.636564e-02  
 1.279381e+09   8.573805e-01  -9.365567e-02  -1.449428e+00  -1.942438e-01   6.023788e-02   1.861218e-02   4.228557e-01   9.604540e-02  
 1.282331e+09   8.573446e-01  -9.374918e-02  -1.449660e+00  -1.934170e-01   6.024989e-02   1.860247e-02   4.229606e-01   9.572549e-02  
 1.285287e+09   8.573087e-01  -9.384314e-02  -1.449890e+00  -1.925908e-01   6.026185e-02   1.859284e-02   4.230651e-01   9.540590e-02  
 1.288250e+09   8.572729e-01  -9.393755e-02  -1.450119e+00  -1.917651e-01   6.027379e-02   1.858329e-02   4.231690e-01   9.508664e-02  
 1.291219e+09   8.572371e-01  -9.403241e-02  -1.450347e+00  -1.909401e-01   6.028568e-02   1.857382e-02   4.232725e-01   9.476769e-02  
 1.294196e+09   8.572014e-01  -9.412772e-02  -1.450575e+00  -1.901157e-01   6.029754e-02   1.856443e-02   4.233756e-01   9.444907e-02  
 1.297179e+09   8.571657e-01  -9.422349e-02  -1.450800e+00  -1.892919e-01   6.030937e-02   1.855512e-02   4.234781e-01   9.413076e-02  
 1.300170e+09   8.571301e-01  -9.431972e-02  -1.451025e+00  -1.884687e-01   6.032116e-02   1.854589e-02   4.235803e-01   9.381278e-02  
 1.303167e+09   8.570945e-01  -9.441640e-02  -1.451249e+00  -1.876460e-01   6.033292e-02   1.853675e-02   4.236819e-01   9.349511e-02  
 1.306171e+09   8.570590e-01  -9.451353e-02  -1.451471e+00  -1.868240e-01   6.034464e-02   1.852768e-02   4.237831e-01   9.317777e-02  
 1.309182e+09   8.570235e-01  -9.461113e-02  -1.451693e+00  -1.860025e-01   6.035632e-02   1.851869e-02   4.238838e-01   9.286074e-02  
 1.312200e+09   8.569880e-01  -9.470918e-02  -1.451913e+00  -1.851816e-01   6.036798e-02   1.850979e-02   4.239841e-01   9.254403e-02  
 1.315225e+09   8.569526e-01  -9.480769e-02  -1.452132e+00  -1.843613e-01   6.037960e-02   1.850096e-02   4.240839e-01   9.222763e-02  
 1.318257e+09   8.569172e-01  -9.490666e-02  -1.452350e+00  -1.835416e-01   6.039118e-02   1.849222e-02   4.241833e-01   9.191156e-02  
 1.321296e+09   8.568818e-01  -9.500609e-02  -1.452567e+00  -1.827225e-01   6.040274e-02   1.848355e-02   4.242822e-01   9.159579e-02  
 1.324342e+09   8.568465e-01  -9.510598e-02  -1.452783e+00  -1.819039e-01   6.041426e-02   1.847497e-02   4.243807e-01   9.128035e-02  
 1.327394e+09   8.568112e-01  -9.520633e-02  -1.452998e+00  -1.810859e-01   6.042574e-02   1.846647e-02   4.244787e-01   9.096521e-02  
 1.330454e+09   8.567760e-01  -9.530714e-02  -1.453211e+00  -1.802685e-01   6.043719e-02   1.845805e-02   4.245763e-01   9.065040e-02  
 1.333521e+09   8.567408e-01  -9.540842e-02  -1.453424e+00  -1.794517e-01   6.044861e-02   1.844971e-02   4.246735e-01   9.033589e-02  
 1.336596e+09   8.567056e-01  -9.551016e-02  -1.453636e+00  -1.786354e-01   6.046000e-02   1.844145e-02   4.247701e-01   9.002170e-02  
 1.339677e+09   8.566705e-01  -9.561236e-02  -1.453846e+00  -1.778197e-01   6.047136e-02   1.843327e-02   4.248664e-01   8.970782e-02  
 1.342765e+09   8.566354e-01  -9.571503e-02  -1.454055e+00  -1.770046e-01   6.048268e-02   1.842518e-02   4.249622e-01   8.939426e-02  
 1.345860e+09   8.566004e-01  -9.581817e-02  -1.454264e+00  -1.761900e-01   6.049397e-02   1.841716e-02   4.250576e-01   8.908100e-02  
 1.348963e+09   8.565653e-01  -9.592177e-02  -1.454471e+00  -1.753761e-01   6.050523e-02   1.840923e-02   4.251525e-01   8.876806e-02  
 1.352073e+09   8.565303e-01  -9.602584e-02  -1.454677e+00  -1.745626e-01   6.051646e-02   1.840138e-02   4.252470e-01   8.845542e-02  
 1.355189e+09   8.564954e-01  -9.613038e-02  -1.454882e+00  -1.737497e-01   6.052766e-02   1.839361e-02   4.253411e-01   8.814310e-02  
 1.358313e+09   8.564604e-01  -9.623539e-02  -1.455086e+00  -1.729374e-01   6.053883e-02   1.838592e-02   4.254348e-01   8.783108e-02  
 1.361445e+09   8.564255e-01  -9.634087e-02  -1.455289e+00  -1.721257e-01   6.054996e-02   1.837831e-02   4.255280e-01   8.751937e-02  
 1.364583e+09   8.563906e-01  -9.644681e-02  -1.455491e+00  -1.713145e-01   6.056107e-02   1.837078e-02   4.256208e-01   8.720797e-02  
 1.367729e+09   8.563558e-01  -9.655323e-02  -1.455692e+00  -1.705038e-01   6.057214e-02   1.836334e-02   4.257131e-01   8.689688e-02  
 1.370882e+09   8.563210e-01  -9.666012e-02  -1.455891e+00  -1.696937e-01   6.058319e-02   1.835598e-02   4.258051e-01   8.658609e-02  
 1.374042e+09   8.562862e-01  -9.676749e-02  -1.456090e+00  -1.688842e-01   6.059420e-02   1.834870e-02   4.258966e-01   8.627561e-02  
 1.377209e+09   8.562514e-01  -9.687532e-02  -1.456288e+00  -1.680752e-01   6.060518e-02   1.834150e-02   4.259877e-01   8.596543e-02  
 1.380384e+09   8.562167e-01  -9.698363e-02  -1.456485e+00  -1.672667e-01   6.061614e-02   1.833438e-02   4.260783e-01   8.565556e-02  
 1.383566e+09   8.561819e-01  -9.709242e-02  -1.456680e+00  -1.664588e-01   6.062706e-02   1.832734e-02   4.261686e-01   8.534599e-02  
 1.386756e+09   8.561473e-01  -9.720168e-02  -1.456875e+00  -1.656514e-01   6.063796e-02   1.832039e-02   4.262584e-01   8.503673e-02  
 1.389953e+09   8.561126e-01  -9.731142e-02  -1.457068e+00  -1.648446e-01   6.064883e-02   1.831352e-02   4.263479e-01   8.472777e-02  
 1.393157e+09   8.560780e-01  -9.742164e-02  -1.457261e+00  -1.640383e-01   6.065966e-02   1.830673e-02   4.264369e-01   8.441910e-02  
 1.396368e+09   8.560433e-01  -9.753233e-02  -1.457452e+00  -1.632325e-01   6.067047e-02   1.830002e-02   4.265255e-01   8.411075e-02  
 1.399587e+09   8.560087e-01  -9.764350e-02  -1.457643e+00  -1.624273e-01   6.068125e-02   1.829340e-02   4.266137e-01   8.380269e-02  
 1.402814e+09   8.559742e-01  -9.775515e-02  -1.457832e+00  -1.616226e-01   6.069201e-02   1.828686e-02   4.267014e-01   8.349493e-02  
 1.406048e+09   8.559396e-01  -9.786729e-02  -1.458021e+00  -1.608184e-01   6.070273e-02   1.828039e-02   4.267888e-01   8.318747e-02  
 1.409289e+09   8.559051e-01  -9.797990e-02  -1.458208e+00  -1.600148e-01   6.071343e-02   1.827402e-02   4.268758e-01   8.288031e-02  
 1.412538e+09   8.558706e-01  -9.809299e-02  -1.458395e+00  -1.592116e-01   6.072409e-02   1.826772e-02   4.269623e-01   8.257344e-02  
 1.415794e+09   8.558361e-01  -9.820657e-02  -1.458580e+00  -1.584090e-01   6.073474e-02   1.826151e-02   4.270485e-01   8.226688e-02  
 1.419058e+09   8.558016e-01  -9.832063e-02  -1.458765e+00  -1.576070e-01   6.074535e-02   1.825538e-02   4.271342e-01   8.196061e-02  
 1.422329e+09   8.557671e-01  -9.843518e-02  -1.458948e+00  -1.568054e-01   6.075594e-02   1.824933e-02   4.272196e-01   8.165463e-02  
 1.425608e+09   8.557327e-01  -9.855021e-02  -1.459131e+00  -1.560044e-01   6.076649e-02   1.824336e-02   4.273045e-01   8.134895e-02  
 1.428894e+09   8.556983e-01  -9.866572e-02  -1.459312e+00  -1.552039e-01   6.077703e-02   1.823748e-02   4.273891e-01   8.104357e-02  
 1.432188e+09   8.556638e-01  -9.878173e-02  -1.459493e+00  -1.544039e-01   6.078753e-02   1.823168e-02   4.274733e-01   8.073848e-02  
 1.435489e+09   8.556294e-01  -9.889821e-02  -1.459672e+00  -1.536044e-01   6.079801e-02   1.822596e-02   4.275570e-01   8.043368e-02  
 1.438799e+09   8.555951e-01  -9.901519e-02  -1.459851e+00  -1.528054e-01   6.080847e-02   1.822032e-02   4.276404e-01   8.012917e-02  
 1.442115e+09   8.555607e-01  -9.913266e-02  -1.460029e+00  -1.520069e-01   6.081889e-02   1.821477e-02   4.277234e-01   7.982496e-02  
 1.445440e+09   8.555263e-01  -9.925061e-02  -1.460205e+00  -1.512089e-01   6.082930e-02   1.820930e-02   4.278060e-01   7.952104e-02  
 1.448772e+09   8.554920e-01  -9.936906e-02  -1.460381e+00  -1.504114e-01   6.083967e-02   1.820391e-02   4.278882e-01   7.921740e-02  
 1.452112e+09   8.554577e-01  -9.948800e-02  -1.460555e+00  -1.496144e-01   6.085002e-02   1.819861e-02   4.279700e-01   7.891406e-02  
 1.455459e+09   8.554234e-01  -9.960742e-02  -1.460729e+00  -1.488180e-01   6.086035e-02   1.819339e-02   4.280515e-01   7.861100e-02  
 1.458814e+09   8.553890e-01  -9.972734e-02  -1.460902e+00  -1.480220e-01   6.087065e-02   1.818825e-02   4.281325e-01   7.830823e-02  
 1.462177e+09   8.553547e-01  -9.984776e-02  -1.461074e+00  -1.472265e-01   6.088092e-02   1.818320e-02   4.282132e-01   7.800575e-02  
 1.465548e+09   8.553205e-01  -9.996867e-02  -1.461245e+00  -1.464315e-01   6.089118e-02   1.817822e-02   4.282935e-01   7.770356e-02  
 1.468926e+09   8.552862e-01  -1.000901e-01  -1.461414e+00  -1.456370e-01   6.090140e-02   1.817334e-02   4.283734e-01   7.740165e-02  
 1.472313e+09   8.552519e-01  -1.002120e-01  -1.461583e+00  -1.448430e-01   6.091160e-02   1.816853e-02   4.284529e-01   7.710002e-02  
 1.475707e+09   8.552176e-01  -1.003344e-01  -1.461751e+00  -1.440494e-01   6.092178e-02   1.816381e-02   4.285320e-01   7.679868e-02  
 1.479108e+09   8.551834e-01  -1.004573e-01  -1.461918e+00  -1.432564e-01   6.093194e-02   1.815917e-02   4.286108e-01   7.649763e-02  
 1.482518e+09   8.551491e-01  -1.005807e-01  -1.462084e+00  -1.424638e-01   6.094207e-02   1.815461e-02   4.286892e-01   7.619685e-02  
 1.485936e+09   8.551149e-01  -1.007045e-01  -1.462250e+00  -1.416717e-01   6.095217e-02   1.815014e-02   4.287672e-01   7.589636e-02  
 1.489361e+09   8.550806e-01  -1.008289e-01  -1.462414e+00  -1.408801e-01   6.096226e-02   1.814575e-02   4.288449e-01   7.559615e-02  
 1.492794e+09   8.550464e-01  -1.009538e-01  -1.462577e+00  -1.400889e-01   6.097232e-02   1.814145e-02   4.289222e-01   7.529622e-02  
 1.496236e+09   8.550122e-01  -1.010792e-01  -1.462740e+00  -1.392983e-01   6.098235e-02   1.813723e-02   4.289991e-01   7.499657e-02  
 1.499685e+09   8.549779e-01  -1.012051e-01  -1.462901e+00  -1.385081e-01   6.099237e-02   1.813309e-02   4.290757e-01   7.469719e-02  
 1.503142e+09   8.549437e-01  -1.013315e-01  -1.463061e+00  -1.377183e-01   6.100236e-02   1.812903e-02   4.291518e-01   7.439810e-02  
 1.506607e+09   8.549095e-01  -1.014584e-01  -1.463221e+00  -1.369290e-01   6.101233e-02   1.812506e-02   4.292277e-01   7.409928e-02  
 1.510080e+09   8.548752e-01  -1.015858e-01  -1.463380e+00  -1.361402e-01   6.102228e-02   1.812118e-02   4.293031e-01   7.380074e-02  
 1.513561e+09   8.548410e-01  -1.017137e-01  -1.463538e+00  -1.353519e-01   6.103220e-02   1.811737e-02   4.293782e-01   7.350247e-02  
 1.517050e+09   8.548068e-01  -1.018421e-01  -1.463694e+00  -1.345640e-01   6.104211e-02   1.811365e-02   4.294529e-01   7.320448e-02  
 1.520548e+09   8.547725e-01  -1.019711e-01  -1.463850e+00  -1.337765e-01   6.105199e-02   1.811002e-02   4.295273e-01   7.290676e-02  
 1.524053e+09   8.547383e-01  -1.021005e-01  -1.464005e+00  -1.329896e-01   6.106185e-02   1.810647e-02   4.296013e-01   7.260931e-02  
 1.527566e+09   8.547041e-01  -1.022304e-01  -1.464159e+00  -1.322030e-01   6.107169e-02   1.810300e-02   4.296750e-01   7.231214e-02  
 1.531087e+09   8.546698e-01  -1.023609e-01  -1.464313e+00  -1.314169e-01   6.108150e-02   1.809962e-02   4.297483e-01   7.201524e-02  
 1.534617e+09   8.546356e-01  -1.024918e-01  -1.464465e+00  -1.306313e-01   6.109130e-02   1.809632e-02   4.298212e-01   7.171861e-02  
 1.538155e+09   8.546013e-01  -1.026233e-01  -1.464616e+00  -1.298461e-01   6.110108e-02   1.809310e-02   4.298938e-01   7.142225e-02  
 1.541700e+09   8.545671e-01  -1.027553e-01  -1.464767e+00  -1.290613e-01   6.111083e-02   1.808997e-02   4.299661e-01   7.112616e-02  
 1.545254e+09   8.545328e-01  -1.028878e-01  -1.464917e+00  -1.282770e-01   6.112057e-02   1.808692e-02   4.300380e-01   7.083033e-02  
 1.548817e+09   8.544985e-01  -1.030208e-01  -1.465065e+00  -1.274931e-01   6.113028e-02   1.808396e-02   4.301095e-01   7.053478e-02  
 1.552387e+09   8.544643e-01  -1.031543e-01  -1.465213e+00  -1.267097e-01   6.113998e-02   1.808108e-02   4.301807e-01   7.023949e-02  
 1.555966e+09   8.544300e-01  -1.032883e-01  -1.465360e+00  -1.259267e-01   6.114965e-02   1.807829e-02   4.302516e-01   6.994447e-02  
 1.559553e+09   8.543957e-01  -1.034229e-01  -1.465506e+00  -1.251441e-01   6.115930e-02   1.807558e-02   4.303221e-01   6.964971e-02  
 1.563148e+09   8.543614e-01  -1.035579e-01  -1.465652e+00  -1.243619e-01   6.116894e-02   1.807295e-02   4.303922e-01   6.935521e-02  
 1.566751e+09   8.543271e-01  -1.036935e-01  -1.465796e+00  -1.235802e-01   6.117856e-02   1.807041e-02   4.304621e-01   6.906098e-02  
 1.570363e+09   8.542928e-01  -1.038296e-01  -1.465939e+00  -1.227988e-01   6.118815e-02   1.806796e-02   4.305315e-01   6.876701e-02  
 1.573983e+09   8.542584e-01  -1.039663e-01  -1.466082e+00  -1.220180e-01   6.119773e-02   1.806559e-02   4.306007e-01   6.847330e-02  
 1.577611e+09   8.542241e-01  -1.041034e-01  -1.466224e+00  -1.212375e-01   6.120729e-02   1.806330e-02   4.306695e-01   6.817986e-02  
 1.581248e+09   8.541897e-01  -1.042411e-01  -1.466365e+00  -1.204574e-01   6.121683e-02   1.806110e-02   4.307379e-01   6.788667e-02  
 1.584893e+09   8.541554e-01  -1.043792e-01  -1.466505e+00  -1.196778e-01   6.122635e-02   1.805898e-02   4.308061e-01   6.759374e-02  
 1.588547e+09   8.541210e-01  -1.045179e-01  -1.466644e+00  -1.188985e-01   6.123586e-02   1.805694e-02   4.308738e-01   6.730107e-02  
 1.592209e+09   8.540866e-01  -1.046572e-01  -1.466782e+00  -1.181197e-01   6.124534e-02   1.805500e-02   4.309413e-01   6.700866e-02  
 1.595879e+09   8.540522e-01  -1.047969e-01  -1.466919e+00  -1.173412e-01   6.125481e-02   1.805313e-02   4.310084e-01   6.671650e-02  
 1.599558e+09   8.540177e-01  -1.049372e-01  -1.467056e+00  -1.165632e-01   6.126426e-02   1.805135e-02   4.310752e-01   6.642460e-02  
 1.603245e+09   8.539833e-01  -1.050780e-01  -1.467192e+00  -1.157856e-01   6.127370e-02   1.804966e-02   4.311417e-01   6.613295e-02  
 1.606941e+09   8.539488e-01  -1.052193e-01  -1.467327e+00  -1.150083e-01   6.128311e-02   1.804805e-02   4.312078e-01   6.584156e-02  
 1.610646e+09   8.539143e-01  -1.053612e-01  -1.467461e+00  -1.142315e-01   6.129251e-02   1.804653e-02   4.312736e-01   6.555042e-02  
 1.614359e+09   8.538798e-01  -1.055036e-01  -1.467594e+00  -1.134551e-01   6.130189e-02   1.804509e-02   4.313391e-01   6.525953e-02  
 1.618080e+09   8.538453e-01  -1.056465e-01  -1.467726e+00  -1.126790e-01   6.131126e-02   1.804374e-02   4.314042e-01   6.496889e-02  
 1.621810e+09   8.538107e-01  -1.057899e-01  -1.467858e+00  -1.119033e-01   6.132061e-02   1.804247e-02   4.314691e-01   6.467851e-02  
 1.625549e+09   8.537762e-01  -1.059339e-01  -1.467988e+00  -1.111280e-01   6.132994e-02   1.804129e-02   4.315336e-01   6.438837e-02  
 1.629296e+09   8.537416e-01  -1.060784e-01  -1.468118e+00  -1.103531e-01   6.133925e-02   1.804019e-02   4.315978e-01   6.409848e-02  
 1.633052e+09   8.537070e-01  -1.062235e-01  -1.468247e+00  -1.095786e-01   6.134855e-02   1.803917e-02   4.316616e-01   6.380884e-02  
 1.636817e+09   8.536724e-01  -1.063690e-01  -1.468375e+00  -1.088045e-01   6.135784e-02   1.803825e-02   4.317252e-01   6.351944e-02  
 1.640590e+09   8.536377e-01  -1.065151e-01  -1.468503e+00  -1.080307e-01   6.136710e-02   1.803741e-02   4.317884e-01   6.323029e-02  
 1.644372e+09   8.536030e-01  -1.066618e-01  -1.468629e+00  -1.072573e-01   6.137636e-02   1.803665e-02   4.318513e-01   6.294139e-02  
 1.648162e+09   8.535683e-01  -1.068089e-01  -1.468755e+00  -1.064842e-01   6.138559e-02   1.803598e-02   4.319139e-01   6.265273e-02  