!2-port S-parameter file
!Title: ** sch_path: /home/andylithia/openmpw/project-yatsuhashi-chip1/xschem/2stack_2_sp.sch
!Generated by ngspice at Wed Aug  3 21:06:37  2022
# Hz S RI R 50
!freq            ReS11           ImS11           ReS21           ImS21           ReS12           ImS12           ReS22           ImS22         
 1.000000e+09   9.920054e-01  -1.261862e-01  -6.785321e-03   1.548739e-02   1.124903e-05   6.945289e-06   3.981700e-01  -8.457004e-01  
 1.002305e+09   9.919680e-01  -1.264797e-01  -6.826999e-03   1.564214e-02   1.138940e-05   7.013257e-06   3.952938e-01  -8.466414e-01  
 1.004616e+09   9.919304e-01  -1.267738e-01  -6.868735e-03   1.579849e-02   1.153158e-05   7.081784e-06   3.924048e-01  -8.475752e-01  
 1.006932e+09   9.918927e-01  -1.270686e-01  -6.910523e-03   1.595645e-02   1.167559e-05   7.150873e-06   3.895028e-01  -8.485017e-01  
 1.009253e+09   9.918548e-01  -1.273642e-01  -6.952358e-03   1.611605e-02   1.182145e-05   7.220525e-06   3.865879e-01  -8.494209e-01  
 1.011579e+09   9.918167e-01  -1.276604e-01  -6.994236e-03   1.627730e-02   1.196920e-05   7.290742e-06   3.836599e-01  -8.503325e-01  
 1.013911e+09   9.917784e-01  -1.279573e-01  -7.036152e-03   1.644022e-02   1.211886e-05   7.361526e-06   3.807189e-01  -8.512366e-01  
 1.016249e+09   9.917400e-01  -1.282550e-01  -7.078100e-03   1.660483e-02   1.227045e-05   7.432879e-06   3.777649e-01  -8.521330e-01  
 1.018591e+09   9.917013e-01  -1.285533e-01  -7.120075e-03   1.677113e-02   1.242399e-05   7.504804e-06   3.747977e-01  -8.530215e-01  
 1.020939e+09   9.916625e-01  -1.288524e-01  -7.162072e-03   1.693916e-02   1.257951e-05   7.577301e-06   3.718174e-01  -8.539021e-01  
 1.023293e+09   9.916235e-01  -1.291521e-01  -7.204085e-03   1.710892e-02   1.273705e-05   7.650373e-06   3.688240e-01  -8.547747e-01  
 1.025652e+09   9.915843e-01  -1.294526e-01  -7.246109e-03   1.728044e-02   1.289662e-05   7.724021e-06   3.658173e-01  -8.556391e-01  
 1.028016e+09   9.915450e-01  -1.297538e-01  -7.288137e-03   1.745374e-02   1.305825e-05   7.798247e-06   3.627974e-01  -8.564953e-01  
 1.030386e+09   9.915054e-01  -1.300557e-01  -7.330163e-03   1.762882e-02   1.322196e-05   7.873052e-06   3.597643e-01  -8.573430e-01  
 1.032761e+09   9.914657e-01  -1.303583e-01  -7.372182e-03   1.780571e-02   1.338780e-05   7.948437e-06   3.567178e-01  -8.581823e-01  
 1.035142e+09   9.914257e-01  -1.306616e-01  -7.414187e-03   1.798444e-02   1.355577e-05   8.024405e-06   3.536580e-01  -8.590130e-01  
 1.037528e+09   9.913856e-01  -1.309657e-01  -7.456171e-03   1.816501e-02   1.372592e-05   8.100955e-06   3.505849e-01  -8.598349e-01  
 1.039920e+09   9.913453e-01  -1.312704e-01  -7.498128e-03   1.834744e-02   1.389826e-05   8.178091e-06   3.474983e-01  -8.606480e-01  
 1.042317e+09   9.913048e-01  -1.315759e-01  -7.540052e-03   1.853176e-02   1.407284e-05   8.255811e-06   3.443984e-01  -8.614521e-01  
 1.044720e+09   9.912641e-01  -1.318822e-01  -7.581934e-03   1.871799e-02   1.424967e-05   8.334118e-06   3.412850e-01  -8.622472e-01  
 1.047129e+09   9.912232e-01  -1.321891e-01  -7.623769e-03   1.890614e-02   1.442879e-05   8.413012e-06   3.381581e-01  -8.630330e-01  
 1.049542e+09   9.911821e-01  -1.324968e-01  -7.665548e-03   1.909623e-02   1.461022e-05   8.492494e-06   3.350178e-01  -8.638095e-01  
 1.051962e+09   9.911408e-01  -1.328052e-01  -7.707264e-03   1.928828e-02   1.479401e-05   8.572565e-06   3.318639e-01  -8.645765e-01  
 1.054387e+09   9.910993e-01  -1.331144e-01  -7.748911e-03   1.948231e-02   1.498016e-05   8.653225e-06   3.286964e-01  -8.653339e-01  
 1.056818e+09   9.910577e-01  -1.334242e-01  -7.790478e-03   1.967835e-02   1.516873e-05   8.734474e-06   3.255154e-01  -8.660816e-01  
 1.059254e+09   9.910158e-01  -1.337349e-01  -7.831960e-03   1.987641e-02   1.535974e-05   8.816313e-06   3.223207e-01  -8.668195e-01  
 1.061696e+09   9.909737e-01  -1.340462e-01  -7.873347e-03   2.007652e-02   1.555322e-05   8.898743e-06   3.191125e-01  -8.675474e-01  
 1.064143e+09   9.909314e-01  -1.343583e-01  -7.914632e-03   2.027868e-02   1.574920e-05   8.981762e-06   3.158906e-01  -8.682652e-01  
 1.066596e+09   9.908890e-01  -1.346711e-01  -7.955805e-03   2.048294e-02   1.594772e-05   9.065372e-06   3.126550e-01  -8.689728e-01  
 1.069055e+09   9.908463e-01  -1.349847e-01  -7.996858e-03   2.068929e-02   1.614881e-05   9.149572e-06   3.094057e-01  -8.696700e-01  
 1.071519e+09   9.908034e-01  -1.352991e-01  -8.037782e-03   2.089778e-02   1.635250e-05   9.234361e-06   3.061427e-01  -8.703567e-01  
 1.073989e+09   9.907603e-01  -1.356141e-01  -8.078567e-03   2.110841e-02   1.655883e-05   9.319740e-06   3.028659e-01  -8.710328e-01  
 1.076465e+09   9.907170e-01  -1.359300e-01  -8.119205e-03   2.132121e-02   1.676783e-05   9.405707e-06   2.995754e-01  -8.716980e-01  
 1.078947e+09   9.906736e-01  -1.362466e-01  -8.159686e-03   2.153620e-02   1.697954e-05   9.492262e-06   2.962711e-01  -8.723524e-01  
 1.081434e+09   9.906299e-01  -1.365639e-01  -8.200000e-03   2.175341e-02   1.719399e-05   9.579404e-06   2.929530e-01  -8.729958e-01  
 1.083927e+09   9.905859e-01  -1.368820e-01  -8.240136e-03   2.197284e-02   1.741121e-05   9.667131e-06   2.896211e-01  -8.736279e-01  
 1.086426e+09   9.905418e-01  -1.372008e-01  -8.280086e-03   2.219454e-02   1.763125e-05   9.755444e-06   2.862753e-01  -8.742487e-01  
 1.088930e+09   9.904975e-01  -1.375205e-01  -8.319838e-03   2.241852e-02   1.785413e-05   9.844340e-06   2.829158e-01  -8.748581e-01  
 1.091440e+09   9.904530e-01  -1.378408e-01  -8.359381e-03   2.264480e-02   1.807990e-05   9.933817e-06   2.795423e-01  -8.754558e-01  
 1.093956e+09   9.904082e-01  -1.381620e-01  -8.398705e-03   2.287340e-02   1.830860e-05   1.002387e-05   2.761550e-01  -8.760418e-01  
 1.096478e+09   9.903632e-01  -1.384839e-01  -8.437798e-03   2.310435e-02   1.854026e-05   1.011451e-05   2.727537e-01  -8.766159e-01  
 1.099006e+09   9.903181e-01  -1.388065e-01  -8.476649e-03   2.333768e-02   1.877492e-05   1.020572e-05   2.693386e-01  -8.771779e-01  
 1.101539e+09   9.902727e-01  -1.391300e-01  -8.515247e-03   2.357340e-02   1.901261e-05   1.029751e-05   2.659095e-01  -8.777277e-01  
 1.104079e+09   9.902271e-01  -1.394542e-01  -8.553579e-03   2.381153e-02   1.925339e-05   1.038987e-05   2.624666e-01  -8.782651e-01  
 1.106624e+09   9.901812e-01  -1.397792e-01  -8.591634e-03   2.405211e-02   1.949728e-05   1.048279e-05   2.590096e-01  -8.787901e-01  
 1.109175e+09   9.901352e-01  -1.401049e-01  -8.629399e-03   2.429516e-02   1.974433e-05   1.057628e-05   2.555388e-01  -8.793024e-01  
 1.111732e+09   9.900889e-01  -1.404315e-01  -8.666861e-03   2.454069e-02   1.999458e-05   1.067034e-05   2.520539e-01  -8.798019e-01  
 1.114295e+09   9.900424e-01  -1.407588e-01  -8.704007e-03   2.478875e-02   2.024807e-05   1.076495e-05   2.485552e-01  -8.802884e-01  
 1.116863e+09   9.899957e-01  -1.410869e-01  -8.740825e-03   2.503934e-02   2.050484e-05   1.086012e-05   2.450424e-01  -8.807619e-01  
 1.119438e+09   9.899488e-01  -1.414158e-01  -8.777300e-03   2.529249e-02   2.076493e-05   1.095585e-05   2.415157e-01  -8.812220e-01  
 1.122018e+09   9.899016e-01  -1.417454e-01  -8.813419e-03   2.554823e-02   2.102840e-05   1.105212e-05   2.379750e-01  -8.816687e-01  
 1.124605e+09   9.898543e-01  -1.420759e-01  -8.849168e-03   2.580659e-02   2.129527e-05   1.114893e-05   2.344203e-01  -8.821018e-01  
 1.127197e+09   9.898067e-01  -1.424071e-01  -8.884532e-03   2.606759e-02   2.156560e-05   1.124629e-05   2.308517e-01  -8.825212e-01  
 1.129796e+09   9.897588e-01  -1.427392e-01  -8.919498e-03   2.633125e-02   2.183943e-05   1.134418e-05   2.272690e-01  -8.829266e-01  
 1.132400e+09   9.897108e-01  -1.430720e-01  -8.954049e-03   2.659760e-02   2.211680e-05   1.144260e-05   2.236724e-01  -8.833180e-01  
 1.135011e+09   9.896625e-01  -1.434056e-01  -8.988171e-03   2.686667e-02   2.239776e-05   1.154155e-05   2.200618e-01  -8.836951e-01  
 1.137627e+09   9.896140e-01  -1.437401e-01  -9.021849e-03   2.713848e-02   2.268236e-05   1.164101e-05   2.164373e-01  -8.840578e-01  
 1.140250e+09   9.895652e-01  -1.440753e-01  -9.055065e-03   2.741307e-02   2.297064e-05   1.174099e-05   2.127988e-01  -8.844059e-01  
 1.142878e+09   9.895162e-01  -1.444113e-01  -9.087805e-03   2.769044e-02   2.326264e-05   1.184148e-05   2.091463e-01  -8.847392e-01  
 1.145513e+09   9.894670e-01  -1.447481e-01  -9.120052e-03   2.797064e-02   2.355843e-05   1.194247e-05   2.054798e-01  -8.850577e-01  
 1.148154e+09   9.894175e-01  -1.450858e-01  -9.151788e-03   2.825369e-02   2.385804e-05   1.204395e-05   2.017995e-01  -8.853611e-01  
 1.150800e+09   9.893679e-01  -1.454242e-01  -9.182998e-03   2.853962e-02   2.416152e-05   1.214592e-05   1.981051e-01  -8.856492e-01  
 1.153453e+09   9.893179e-01  -1.457635e-01  -9.213662e-03   2.882845e-02   2.446893e-05   1.224838e-05   1.943969e-01  -8.859218e-01  
 1.156112e+09   9.892678e-01  -1.461036e-01  -9.243764e-03   2.912022e-02   2.478032e-05   1.235130e-05   1.906747e-01  -8.861789e-01  
 1.158777e+09   9.892173e-01  -1.464444e-01  -9.273285e-03   2.941494e-02   2.509573e-05   1.245469e-05   1.869387e-01  -8.864201e-01  
 1.161449e+09   9.891667e-01  -1.467861e-01  -9.302207e-03   2.971265e-02   2.541521e-05   1.255854e-05   1.831887e-01  -8.866454e-01  
 1.164126e+09   9.891158e-01  -1.471287e-01  -9.330510e-03   3.001337e-02   2.573882e-05   1.266284e-05   1.794249e-01  -8.868546e-01  
 1.166810e+09   9.890647e-01  -1.474720e-01  -9.358176e-03   3.031714e-02   2.606661e-05   1.276758e-05   1.756473e-01  -8.870474e-01  
 1.169499e+09   9.890133e-01  -1.478162e-01  -9.385185e-03   3.062398e-02   2.639864e-05   1.287274e-05   1.718558e-01  -8.872237e-01  
 1.172195e+09   9.889617e-01  -1.481612e-01  -9.411516e-03   3.093392e-02   2.673495e-05   1.297833e-05   1.680505e-01  -8.873833e-01  
 1.174898e+09   9.889098e-01  -1.485070e-01  -9.437150e-03   3.124699e-02   2.707561e-05   1.308433e-05   1.642315e-01  -8.875261e-01  
 1.177606e+09   9.888577e-01  -1.488536e-01  -9.462066e-03   3.156322e-02   2.742066e-05   1.319073e-05   1.603987e-01  -8.876518e-01  
 1.180321e+09   9.888053e-01  -1.492011e-01  -9.486242e-03   3.188264e-02   2.777016e-05   1.329752e-05   1.565521e-01  -8.877602e-01  
 1.183042e+09   9.887527e-01  -1.495494e-01  -9.509657e-03   3.220528e-02   2.812418e-05   1.340469e-05   1.526919e-01  -8.878512e-01  
 1.185769e+09   9.886998e-01  -1.498986e-01  -9.532288e-03   3.253116e-02   2.848276e-05   1.351223e-05   1.488180e-01  -8.879246e-01  
 1.188502e+09   9.886467e-01  -1.502486e-01  -9.554114e-03   3.286033e-02   2.884596e-05   1.362012e-05   1.449304e-01  -8.879802e-01  
 1.191242e+09   9.885933e-01  -1.505994e-01  -9.575111e-03   3.319279e-02   2.921384e-05   1.372835e-05   1.410293e-01  -8.880178e-01  
 1.193988e+09   9.885397e-01  -1.509511e-01  -9.595257e-03   3.352860e-02   2.958647e-05   1.383691e-05   1.371145e-01  -8.880372e-01  
 1.196741e+09   9.884858e-01  -1.513036e-01  -9.614528e-03   3.386778e-02   2.996390e-05   1.394579e-05   1.331863e-01  -8.880381e-01  
 1.199499e+09   9.884316e-01  -1.516570e-01  -9.632898e-03   3.421035e-02   3.034618e-05   1.405497e-05   1.292445e-01  -8.880205e-01  
 1.202264e+09   9.883772e-01  -1.520112e-01  -9.650345e-03   3.455635e-02   3.073339e-05   1.416444e-05   1.252893e-01  -8.879841e-01  
 1.205036e+09   9.883225e-01  -1.523662e-01  -9.666842e-03   3.490581e-02   3.112558e-05   1.427419e-05   1.213207e-01  -8.879288e-01  
 1.207814e+09   9.882676e-01  -1.527222e-01  -9.682365e-03   3.525877e-02   3.152282e-05   1.438419e-05   1.173387e-01  -8.878542e-01  
 1.210598e+09   9.882124e-01  -1.530789e-01  -9.696887e-03   3.561525e-02   3.192517e-05   1.449443e-05   1.133434e-01  -8.877603e-01  
 1.213389e+09   9.881569e-01  -1.534366e-01  -9.710382e-03   3.597528e-02   3.233269e-05   1.460491e-05   1.093348e-01  -8.876467e-01  
 1.216186e+09   9.881012e-01  -1.537951e-01  -9.722823e-03   3.633890e-02   3.274544e-05   1.471559e-05   1.053130e-01  -8.875134e-01  
 1.218990e+09   9.880452e-01  -1.541544e-01  -9.734183e-03   3.670614e-02   3.316351e-05   1.482646e-05   1.012780e-01  -8.873601e-01  
 1.221800e+09   9.879889e-01  -1.545147e-01  -9.744433e-03   3.707702e-02   3.358694e-05   1.493751e-05   9.722989e-02  -8.871866e-01  
 1.224616e+09   9.879324e-01  -1.548758e-01  -9.753546e-03   3.745159e-02   3.401580e-05   1.504871e-05   9.316875e-02  -8.869927e-01  
 1.227439e+09   9.878756e-01  -1.552377e-01  -9.761492e-03   3.782988e-02   3.445017e-05   1.516006e-05   8.909460e-02  -8.867782e-01  
 1.230269e+09   9.878185e-01  -1.556006e-01  -9.768242e-03   3.821191e-02   3.489011e-05   1.527152e-05   8.500752e-02  -8.865429e-01  
 1.233105e+09   9.877611e-01  -1.559643e-01  -9.773766e-03   3.859772e-02   3.533569e-05   1.538307e-05   8.090757e-02  -8.862865e-01  
 1.235947e+09   9.877035e-01  -1.563289e-01  -9.778034e-03   3.898735e-02   3.578698e-05   1.549471e-05   7.679480e-02  -8.860089e-01  
 1.238797e+09   9.876456e-01  -1.566943e-01  -9.781014e-03   3.938082e-02   3.624405e-05   1.560639e-05   7.266930e-02  -8.857099e-01  
 1.241652e+09   9.875874e-01  -1.570607e-01  -9.782675e-03   3.977817e-02   3.670698e-05   1.571812e-05   6.853113e-02  -8.853891e-01  
 1.244515e+09   9.875289e-01  -1.574279e-01  -9.782985e-03   4.017944e-02   3.717582e-05   1.582985e-05   6.438036e-02  -8.850465e-01  
 1.247384e+09   9.874701e-01  -1.577960e-01  -9.781911e-03   4.058465e-02   3.765067e-05   1.594157e-05   6.021708e-02  -8.846818e-01  
 1.250259e+09   9.874111e-01  -1.581651e-01  -9.779420e-03   4.099384e-02   3.813158e-05   1.605325e-05   5.604134e-02  -8.842948e-01  
 1.253141e+09   9.873518e-01  -1.585350e-01  -9.775479e-03   4.140704e-02   3.861864e-05   1.616487e-05   5.185325e-02  -8.838853e-01  
 1.256030e+09   9.872922e-01  -1.589057e-01  -9.770052e-03   4.182429e-02   3.911192e-05   1.627641e-05   4.765287e-02  -8.834530e-01  
 1.258925e+09   9.872323e-01  -1.592774e-01  -9.763105e-03   4.224563e-02   3.961150e-05   1.638783e-05   4.344030e-02  -8.829978e-01  
 1.261828e+09   9.871721e-01  -1.596500e-01  -9.754602e-03   4.267108e-02   4.011745e-05   1.649911e-05   3.921562e-02  -8.825193e-01  
 1.264736e+09   9.871116e-01  -1.600235e-01  -9.744508e-03   4.310068e-02   4.062985e-05   1.661022e-05   3.497893e-02  -8.820175e-01  
 1.267652e+09   9.870509e-01  -1.603979e-01  -9.732785e-03   4.353446e-02   4.114878e-05   1.672114e-05   3.073031e-02  -8.814920e-01  
 1.270574e+09   9.869898e-01  -1.607732e-01  -9.719395e-03   4.397246e-02   4.167432e-05   1.683184e-05   2.646986e-02  -8.809427e-01  
 1.273503e+09   9.869285e-01  -1.611494e-01  -9.704301e-03   4.441472e-02   4.220655e-05   1.694227e-05   2.219768e-02  -8.803693e-01  
 1.276439e+09   9.868668e-01  -1.615265e-01  -9.687465e-03   4.486127e-02   4.274555e-05   1.705243e-05   1.791387e-02  -8.797716e-01  
 1.279381e+09   9.868049e-01  -1.619046e-01  -9.668846e-03   4.531214e-02   4.329139e-05   1.716226e-05   1.361854e-02  -8.791493e-01  
 1.282331e+09   9.867426e-01  -1.622835e-01  -9.648405e-03   4.576737e-02   4.384418e-05   1.727175e-05   9.311786e-03  -8.785023e-01  
 1.285287e+09   9.866801e-01  -1.626634e-01  -9.626101e-03   4.622700e-02   4.440398e-05   1.738085e-05   4.993726e-03  -8.778303e-01  
 1.288250e+09   9.866173e-01  -1.630442e-01  -9.601894e-03   4.669106e-02   4.497088e-05   1.748954e-05   6.644694e-04  -8.771331e-01  
 1.291219e+09   9.865541e-01  -1.634259e-01  -9.575739e-03   4.715958e-02   4.554497e-05   1.759777e-05  -3.675867e-03  -8.764105e-01  
 1.294196e+09   9.864906e-01  -1.638085e-01  -9.547597e-03   4.763260e-02   4.612633e-05   1.770552e-05  -8.027165e-03  -8.756621e-01  
 1.297179e+09   9.864269e-01  -1.641921e-01  -9.517421e-03   4.811015e-02   4.671505e-05   1.781274e-05  -1.238930e-02  -8.748879e-01  
 1.300170e+09   9.863628e-01  -1.645766e-01  -9.485170e-03   4.859228e-02   4.731122e-05   1.791940e-05  -1.676216e-02  -8.740875e-01  
 1.303167e+09   9.862984e-01  -1.649620e-01  -9.450797e-03   4.907902e-02   4.791492e-05   1.802545e-05  -2.114560e-02  -8.732608e-01  
 1.306171e+09   9.862337e-01  -1.653484e-01  -9.414258e-03   4.957040e-02   4.852625e-05   1.813087e-05  -2.553950e-02  -8.724075e-01  
 1.309182e+09   9.861687e-01  -1.657357e-01  -9.375506e-03   5.006645e-02   4.914529e-05   1.823560e-05  -2.994372e-02  -8.715273e-01  
 1.312200e+09   9.861034e-01  -1.661239e-01  -9.334494e-03   5.056723e-02   4.977215e-05   1.833961e-05  -3.435812e-02  -8.706201e-01  
 1.315225e+09   9.860378e-01  -1.665131e-01  -9.291175e-03   5.107275e-02   5.040690e-05   1.844285e-05  -3.878257e-02  -8.696855e-01  
 1.318257e+09   9.859718e-01  -1.669032e-01  -9.245499e-03   5.158306e-02   5.104964e-05   1.854528e-05  -4.321692e-02  -8.687234e-01  
 1.321296e+09   9.859056e-01  -1.672943e-01  -9.197418e-03   5.209819e-02   5.170047e-05   1.864686e-05  -4.766103e-02  -8.677336e-01  
 1.324342e+09   9.858390e-01  -1.676863e-01  -9.146882e-03   5.261818e-02   5.235948e-05   1.874753e-05  -5.211474e-02  -8.667157e-01  
 1.327394e+09   9.857721e-01  -1.680793e-01  -9.093839e-03   5.314307e-02   5.302677e-05   1.884726e-05  -5.657789e-02  -8.656696e-01  
 1.330454e+09   9.857048e-01  -1.684733e-01  -9.038239e-03   5.367289e-02   5.370242e-05   1.894599e-05  -6.105034e-02  -8.645950e-01  
 1.333521e+09   9.856373e-01  -1.688682e-01  -8.980028e-03   5.420767e-02   5.438655e-05   1.904367e-05  -6.553192e-02  -8.634917e-01  
 1.336596e+09   9.855694e-01  -1.692640e-01  -8.919154e-03   5.474746e-02   5.507925e-05   1.914026e-05  -7.002246e-02  -8.623594e-01  
 1.339677e+09   9.855011e-01  -1.696608e-01  -8.855562e-03   5.529229e-02   5.578062e-05   1.923569e-05  -7.452181e-02  -8.611979e-01  
 1.342765e+09   9.854326e-01  -1.700586e-01  -8.789198e-03   5.584219e-02   5.649075e-05   1.932993e-05  -7.902978e-02  -8.600070e-01  
 1.345860e+09   9.853637e-01  -1.704574e-01  -8.720006e-03   5.639720e-02   5.720975e-05   1.942290e-05  -8.354620e-02  -8.587864e-01  
 1.348963e+09   9.852945e-01  -1.708571e-01  -8.647930e-03   5.695737e-02   5.793772e-05   1.951457e-05  -8.807089e-02  -8.575358e-01  
 1.352073e+09   9.852249e-01  -1.712578e-01  -8.572911e-03   5.752271e-02   5.867477e-05   1.960487e-05  -9.260367e-02  -8.562552e-01  
 1.355189e+09   9.851550e-01  -1.716595e-01  -8.494893e-03   5.809327e-02   5.942099e-05   1.969374e-05  -9.714436e-02  -8.549441e-01  
 1.358313e+09   9.850848e-01  -1.720622e-01  -8.413815e-03   5.866909e-02   6.017650e-05   1.978112e-05  -1.016928e-01  -8.536024e-01  
 1.361445e+09   9.850142e-01  -1.724659e-01  -8.329617e-03   5.925020e-02   6.094139e-05   1.986696e-05  -1.062487e-01  -8.522299e-01  
 1.364583e+09   9.849433e-01  -1.728705e-01  -8.242240e-03   5.983664e-02   6.171578e-05   1.995118e-05  -1.108119e-01  -8.508262e-01  
 1.367729e+09   9.848720e-01  -1.732761e-01  -8.151620e-03   6.042844e-02   6.249977e-05   2.003374e-05  -1.153823e-01  -8.493912e-01  
 1.370882e+09   9.848004e-01  -1.736827e-01  -8.057696e-03   6.102564e-02   6.329346e-05   2.011455e-05  -1.199595e-01  -8.479246e-01  
 1.374042e+09   9.847285e-01  -1.740903e-01  -7.960404e-03   6.162827e-02   6.409698e-05   2.019356e-05  -1.245435e-01  -8.464261e-01  
 1.377209e+09   9.846562e-01  -1.744990e-01  -7.859678e-03   6.223637e-02   6.491043e-05   2.027070e-05  -1.291340e-01  -8.448956e-01  
 1.380384e+09   9.845835e-01  -1.749086e-01  -7.755454e-03   6.284997e-02   6.573391e-05   2.034589e-05  -1.337307e-01  -8.433328e-01  
 1.383566e+09   9.845105e-01  -1.753192e-01  -7.647666e-03   6.346912e-02   6.656755e-05   2.041908e-05  -1.383335e-01  -8.417375e-01  
 1.386756e+09   9.844371e-01  -1.757308e-01  -7.536245e-03   6.409384e-02   6.741145e-05   2.049017e-05  -1.429421e-01  -8.401094e-01  
 1.389953e+09   9.843634e-01  -1.761434e-01  -7.421125e-03   6.472416e-02   6.826573e-05   2.055911e-05  -1.475563e-01  -8.384483e-01  
 1.393157e+09   9.842893e-01  -1.765570e-01  -7.302234e-03   6.536013e-02   6.913050e-05   2.062581e-05  -1.521759e-01  -8.367539e-01  
 1.396368e+09   9.842149e-01  -1.769717e-01  -7.179504e-03   6.600178e-02   7.000588e-05   2.069020e-05  -1.568006e-01  -8.350261e-01  
 1.399587e+09   9.841401e-01  -1.773874e-01  -7.052862e-03   6.664914e-02   7.089198e-05   2.075220e-05  -1.614301e-01  -8.332645e-01  
 1.402814e+09   9.840649e-01  -1.778040e-01  -6.922237e-03   6.730225e-02   7.178893e-05   2.081172e-05  -1.660643e-01  -8.314690e-01  
 1.406048e+09   9.839893e-01  -1.782218e-01  -6.787556e-03   6.796114e-02   7.269683e-05   2.086869e-05  -1.707029e-01  -8.296393e-01  
 1.409289e+09   9.839134e-01  -1.786405e-01  -6.648743e-03   6.862584e-02   7.361582e-05   2.092302e-05  -1.753456e-01  -8.277751e-01  
 1.412538e+09   9.838371e-01  -1.790603e-01  -6.505725e-03   6.929639e-02   7.454600e-05   2.097462e-05  -1.799922e-01  -8.258764e-01  
 1.415794e+09   9.837605e-01  -1.794810e-01  -6.358424e-03   6.997282e-02   7.548750e-05   2.102341e-05  -1.846424e-01  -8.239427e-01  
 1.419058e+09   9.836835e-01  -1.799029e-01  -6.206764e-03   7.065516e-02   7.644045e-05   2.106930e-05  -1.892959e-01  -8.219740e-01  
 1.422329e+09   9.836061e-01  -1.803257e-01  -6.050665e-03   7.134345e-02   7.740495e-05   2.111220e-05  -1.939524e-01  -8.199699e-01  
 1.425608e+09   9.835283e-01  -1.807496e-01  -5.890050e-03   7.203772e-02   7.838115e-05   2.115200e-05  -1.986117e-01  -8.179302e-01  
 1.428894e+09   9.834501e-01  -1.811746e-01  -5.724836e-03   7.273800e-02   7.936915e-05   2.118863e-05  -2.032736e-01  -8.158547e-01  
 1.432188e+09   9.833716e-01  -1.816006e-01  -5.554943e-03   7.344432e-02   8.036909e-05   2.122198e-05  -2.079376e-01  -8.137433e-01  
 1.435489e+09   9.832926e-01  -1.820276e-01  -5.380288e-03   7.415672e-02   8.138109e-05   2.125195e-05  -2.126036e-01  -8.115955e-01  
 1.438799e+09   9.832133e-01  -1.824557e-01  -5.200788e-03   7.487522e-02   8.240528e-05   2.127844e-05  -2.172712e-01  -8.094114e-01  
 1.442115e+09   9.831336e-01  -1.828849e-01  -5.016357e-03   7.559985e-02   8.344178e-05   2.130135e-05  -2.219401e-01  -8.071905e-01  
 1.445440e+09   9.830535e-01  -1.833151e-01  -4.826910e-03   7.633065e-02   8.449073e-05   2.132057e-05  -2.266100e-01  -8.049327e-01  
 1.448772e+09   9.829730e-01  -1.837463e-01  -4.632360e-03   7.706764e-02   8.555225e-05   2.133599e-05  -2.312807e-01  -8.026378e-01  
 1.452112e+09   9.828921e-01  -1.841787e-01  -4.432619e-03   7.781086e-02   8.662648e-05   2.134752e-05  -2.359517e-01  -8.003056e-01  
 1.455459e+09   9.828109e-01  -1.846121e-01  -4.227597e-03   7.856034e-02   8.771353e-05   2.135502e-05  -2.406228e-01  -7.979359e-01  
 1.458814e+09   9.827292e-01  -1.850465e-01  -4.017206e-03   7.931610e-02   8.881356e-05   2.135840e-05  -2.452937e-01  -7.955283e-01  
 1.462177e+09   9.826471e-01  -1.854821e-01  -3.801352e-03   8.007816e-02   8.992668e-05   2.135754e-05  -2.499640e-01  -7.930828e-01  
 1.465548e+09   9.825646e-01  -1.859187e-01  -3.579943e-03   8.084657e-02   9.105303e-05   2.135231e-05  -2.546333e-01  -7.905992e-01  
 1.468926e+09   9.824817e-01  -1.863564e-01  -3.352887e-03   8.162134e-02   9.219274e-05   2.134260e-05  -2.593014e-01  -7.880771e-01  
 1.472313e+09   9.823984e-01  -1.867952e-01  -3.120087e-03   8.240251e-02   9.334595e-05   2.132829e-05  -2.639680e-01  -7.855165e-01  
 1.475707e+09   9.823147e-01  -1.872351e-01  -2.881449e-03   8.319009e-02   9.451280e-05   2.130925e-05  -2.686325e-01  -7.829170e-01  
 1.479108e+09   9.822306e-01  -1.876760e-01  -2.636875e-03   8.398412e-02   9.569341e-05   2.128535e-05  -2.732948e-01  -7.802786e-01  
 1.482518e+09   9.821461e-01  -1.881181e-01  -2.386267e-03   8.478461e-02   9.688793e-05   2.125646e-05  -2.779545e-01  -7.776010e-01  
 1.485936e+09   9.820612e-01  -1.885612e-01  -2.129524e-03   8.559160e-02   9.809649e-05   2.122246e-05  -2.826111e-01  -7.748840e-01  
 1.489361e+09   9.819758e-01  -1.890055e-01  -1.866548e-03   8.640511e-02   9.931923e-05   2.118320e-05  -2.872643e-01  -7.721275e-01  
 1.492794e+09   9.818900e-01  -1.894508e-01  -1.597236e-03   8.722516e-02   1.005563e-04   2.113855e-05  -2.919138e-01  -7.693312e-01  
 1.496236e+09   9.818038e-01  -1.898972e-01  -1.321484e-03   8.805177e-02   1.018078e-04   2.108837e-05  -2.965592e-01  -7.664949e-01  
 1.499685e+09   9.817172e-01  -1.903448e-01  -1.039190e-03   8.888497e-02   1.030739e-04   2.103252e-05  -3.012000e-01  -7.636186e-01  
 1.503142e+09   9.816301e-01  -1.907935e-01  -7.502466e-04   8.972478e-02   1.043548e-04   2.097086e-05  -3.058360e-01  -7.607019e-01  
 1.506607e+09   9.815426e-01  -1.912433e-01  -4.545487e-04   9.057121e-02   1.056505e-04   2.090323e-05  -3.104667e-01  -7.577448e-01  
 1.510080e+09   9.814547e-01  -1.916942e-01  -1.519882e-04   9.142429e-02   1.069613e-04   2.082949e-05  -3.150917e-01  -7.547470e-01  
 1.513561e+09   9.813664e-01  -1.921462e-01   1.575438e-04   9.228404e-02   1.082872e-04   2.074948e-05  -3.197106e-01  -7.517084e-01  
 1.517050e+09   9.812776e-01  -1.925993e-01   4.741574e-04   9.315048e-02   1.096284e-04   2.066305e-05  -3.243230e-01  -7.486288e-01  
 1.520548e+09   9.811883e-01  -1.930536e-01   7.979639e-04   9.402361e-02   1.109851e-04   2.057005e-05  -3.289285e-01  -7.455080e-01  
 1.524053e+09   9.810987e-01  -1.935090e-01   1.129076e-03   9.490347e-02   1.123574e-04   2.047030e-05  -3.335267e-01  -7.423460e-01  
 1.527566e+09   9.810086e-01  -1.939656e-01   1.467607e-03   9.579006e-02   1.137454e-04   2.036365e-05  -3.381171e-01  -7.391424e-01  
 1.531087e+09   9.809180e-01  -1.944232e-01   1.813672e-03   9.668341e-02   1.151492e-04   2.024994e-05  -3.426994e-01  -7.358973e-01  
 1.534617e+09   9.808270e-01  -1.948821e-01   2.167387e-03   9.758352e-02   1.165691e-04   2.012898e-05  -3.472731e-01  -7.326104e-01  
 1.538155e+09   9.807356e-01  -1.953420e-01   2.528869e-03   9.849041e-02   1.180052e-04   2.000062e-05  -3.518378e-01  -7.292816e-01  
 1.541700e+09   9.806436e-01  -1.958032e-01   2.898237e-03   9.940409e-02   1.194576e-04   1.986466e-05  -3.563930e-01  -7.259108e-01  
 1.545254e+09   9.805513e-01  -1.962654e-01   3.275611e-03   1.003246e-01   1.209265e-04   1.972095e-05  -3.609383e-01  -7.224978e-01  
 1.548817e+09   9.804585e-01  -1.967288e-01   3.661112e-03   1.012519e-01   1.224119e-04   1.956929e-05  -3.654732e-01  -7.190424e-01  
 1.552387e+09   9.803652e-01  -1.971934e-01   4.054861e-03   1.021860e-01   1.239141e-04   1.940950e-05  -3.699973e-01  -7.155447e-01  
 1.555966e+09   9.802714e-01  -1.976592e-01   4.456983e-03   1.031270e-01   1.254333e-04   1.924139e-05  -3.745102e-01  -7.120043e-01  
 1.559553e+09   9.801772e-01  -1.981261e-01   4.867601e-03   1.040748e-01   1.269694e-04   1.906478e-05  -3.790113e-01  -7.084214e-01  
 1.563148e+09   9.800826e-01  -1.985942e-01   5.286842e-03   1.050294e-01   1.285228e-04   1.887947e-05  -3.835003e-01  -7.047956e-01  
 1.566751e+09   9.799874e-01  -1.990634e-01   5.714832e-03   1.059909e-01   1.300935e-04   1.868526e-05  -3.879765e-01  -7.011269e-01  
 1.570363e+09   9.798918e-01  -1.995338e-01   6.151700e-03   1.069593e-01   1.316817e-04   1.848196e-05  -3.924396e-01  -6.974152e-01  
 1.573983e+09   9.797957e-01  -2.000054e-01   6.597574e-03   1.079345e-01   1.332876e-04   1.826935e-05  -3.968891e-01  -6.936605e-01  
 1.577611e+09   9.796991e-01  -2.004782e-01   7.052587e-03   1.089166e-01   1.349112e-04   1.804725e-05  -4.013245e-01  -6.898626e-01  
 1.581248e+09   9.796021e-01  -2.009522e-01   7.516868e-03   1.099055e-01   1.365528e-04   1.781542e-05  -4.057453e-01  -6.860214e-01  
 1.584893e+09   9.795045e-01  -2.014274e-01   7.990553e-03   1.109014e-01   1.382124e-04   1.757367e-05  -4.101510e-01  -6.821368e-01  
 1.588547e+09   9.794065e-01  -2.019037e-01   8.473773e-03   1.119040e-01   1.398903e-04   1.732177e-05  -4.145410e-01  -6.782088e-01  
 1.592209e+09   9.793080e-01  -2.023813e-01   8.966666e-03   1.129136e-01   1.415866e-04   1.705952e-05  -4.189150e-01  -6.742374e-01  
 1.595879e+09   9.792090e-01  -2.028601e-01   9.469366e-03   1.139300e-01   1.433014e-04   1.678667e-05  -4.232724e-01  -6.702223e-01  
 1.599558e+09   9.791095e-01  -2.033400e-01   9.982013e-03   1.149532e-01   1.450349e-04   1.650301e-05  -4.276127e-01  -6.661637e-01  
 1.603245e+09   9.790095e-01  -2.038212e-01   1.050474e-02   1.159834e-01   1.467872e-04   1.620831e-05  -4.319353e-01  -6.620614e-01  
 1.606941e+09   9.789091e-01  -2.043036e-01   1.103770e-02   1.170203e-01   1.485585e-04   1.590233e-05  -4.362398e-01  -6.579154e-01  
 1.610646e+09   9.788081e-01  -2.047872e-01   1.158102e-02   1.180641e-01   1.503489e-04   1.558483e-05  -4.405257e-01  -6.537256e-01  
 1.614359e+09   9.787066e-01  -2.052720e-01   1.213485e-02   1.191147e-01   1.521586e-04   1.525558e-05  -4.447923e-01  -6.494920e-01  
 1.618080e+09   9.786046e-01  -2.057581e-01   1.269934e-02   1.201721e-01   1.539877e-04   1.491434e-05  -4.490392e-01  -6.452146e-01  
 1.621810e+09   9.785021e-01  -2.062454e-01   1.327461e-02   1.212363e-01   1.558364e-04   1.456084e-05  -4.532659e-01  -6.408934e-01  
 1.625549e+09   9.783990e-01  -2.067339e-01   1.386083e-02   1.223073e-01   1.577048e-04   1.419485e-05  -4.574717e-01  -6.365284e-01  
 1.629296e+09   9.782955e-01  -2.072236e-01   1.445814e-02   1.233851e-01   1.595930e-04   1.381610e-05  -4.616562e-01  -6.321195e-01  
 1.633052e+09   9.781914e-01  -2.077146e-01   1.506669e-02   1.244696e-01   1.615012e-04   1.342435e-05  -4.658189e-01  -6.276667e-01  
 1.636817e+09   9.780869e-01  -2.082068e-01   1.568662e-02   1.255608e-01   1.634296e-04   1.301931e-05  -4.699591e-01  -6.231701e-01  
 1.640590e+09   9.779818e-01  -2.087003e-01   1.631809e-02   1.266588e-01   1.653783e-04   1.260074e-05  -4.740763e-01  -6.186296e-01  
 1.644372e+09   9.778761e-01  -2.091950e-01   1.696124e-02   1.277634e-01   1.673475e-04   1.216835e-05  -4.781699e-01  -6.140454e-01  
 1.648162e+09   9.777700e-01  -2.096910e-01   1.761623e-02   1.288748e-01   1.693372e-04   1.172187e-05  -4.822395e-01  -6.094174e-01  